Title: * spice3 file created from hex7seg.ext - technology: tsmc
Date: Fri Apr 28 12:53:35  2017
Plotname: Transient Analysis
Flags: real
No. Variables: 12
No. Points: 609
Variables:
	0	time	time
	1	a	voltage
	2	b	voltage
	3	c	voltage
	4	d	voltage
	5	seg_a	voltage
	6	seg_b	voltage
	7	seg_c	voltage
	8	seg_d	voltage
	9	seg_e	voltage
	10	seg_f	voltage
	11	seg_g	voltage
Values:
 0	0.000000000000000e+00
	3.300000000000000e+00
	3.300000000000000e+00
	3.300000000000000e+00
	3.300000000000000e+00
	1.358472069316151e-07
	3.299999808988481e+00
	3.299999874894721e+00
	3.299999808987937e+00
	1.049890010724684e-07
	1.358471972850309e-07
	1.049890195042450e-07

 1	1.000000000000000e-11
	3.267000000000000e+00
	3.267000000000000e+00
	3.267000000000000e+00
	3.267000000000000e+00
	-1.052785447388654e-03
	3.298923617331569e+00
	3.298614305812628e+00
	3.299100369919633e+00
	-3.772421287334682e-04
	-9.730502882914494e-04
	-4.845988838449999e-04

 2	2.000000000000000e-11
	3.234000000000000e+00
	3.234000000000000e+00
	3.234000000000000e+00
	3.234000000000000e+00
	-1.525609577725406e-03
	3.298490424130735e+00
	3.298047531287439e+00
	3.298772524885904e+00
	-4.492040235692940e-04
	-1.393955054199980e-03
	-6.207112636598122e-04

 3	4.000000000000000e-11
	3.168000000000000e+00
	3.168000000000000e+00
	3.168000000000000e+00
	3.168000000000000e+00
	-1.768369680062609e-03
	3.298348733262096e+00
	3.297888418590958e+00
	3.298719537174166e+00
	-3.444249328303783e-04
	-1.587091246492311e-03
	-5.776281591930443e-04

 4	8.000000000000001e-11
	3.036000000000000e+00
	3.036000000000000e+00
	3.036000000000000e+00
	3.036000000000000e+00
	-8.802667203704068e-04
	3.299405432142290e+00
	3.299321090159575e+00
	3.299599897718914e+00
	4.654025966110975e-06
	-7.551433209393166e-04
	-1.664882860909489e-04

 5	1.600000000000000e-10
	2.772000000000000e+00
	2.772000000000000e+00
	2.772000000000000e+00
	2.772000000000000e+00
	-2.780589033719166e-04
	3.300276381614343e+00
	3.300635439741693e+00
	3.300255580075548e+00
	-8.366198855636053e-05
	-2.644295369479133e-04
	-1.043466191747999e-04

 6	3.200000000000000e-10
	2.244000000000000e+00
	2.244000000000000e+00
	2.244000000000000e+00
	2.244000000000000e+00
	4.261991037108753e-04
	3.305007466915902e+00
	3.309643320375777e+00
	3.304940554027362e+00
	1.105204524483594e-04
	3.339715714965330e-04
	2.521473898795534e-04

 7	3.407031056927350e-10
	2.175679751213975e+00
	2.175679751213975e+00
	2.175679751213975e+00
	2.175679751213975e+00
	8.033355232906075e-04
	3.306036778340691e+00
	3.311372244830334e+00
	3.305902226284425e+00
	2.198240958289355e-04
	6.987784361627836e-04
	3.579618892875502e-04

 8	3.821093170782049e-10
	2.039039253641924e+00
	2.039039253641924e+00
	2.039039253641924e+00
	2.039039253641924e+00
	7.458277142655678e-04
	3.307929064254693e+00
	3.313841112800339e+00
	3.307810386138756e+00
	1.981047274483005e-04
	6.842128107684142e-04
	2.806840836848123e-04

 9	4.649217398491448e-10
	1.765758258497822e+00
	1.765758258497822e+00
	1.765758258497822e+00
	1.765758258497822e+00
	2.274276838997308e-04
	3.241906813466851e+00
	3.076052775146935e+00
	3.239360474679713e+00
	1.691574898491921e-04
	2.460508779062870e-04
	1.789314212243820e-04

 10	5.597244872469431e-10
	1.452909192085088e+00
	1.452909192085088e+00
	1.452909192085088e+00
	1.452909192085088e+00
	2.820779733915674e-04
	1.128794146046419e+00
	7.210935352467019e-01
	1.112569667646270e+00
	6.862788226311423e-04
	-1.218164965076929e-04
	5.716845455501496e-04

 11	6.525141196799129e-10
	1.146703405056288e+00
	1.146703405056288e+00
	1.146703405056288e+00
	1.146703405056288e+00
	-1.267451260655392e-02
	-7.763407508699177e-02
	-1.940983596906343e-01
	-7.819894791378643e-02
	-1.459443295949348e-02
	-1.778721860226150e-02
	-1.149338376626341e-02

 12	7.408567058688640e-10
	8.551728706327490e-01
	8.551728706327490e-01
	8.551728706327490e-01
	8.551728706327490e-01
	-9.121155448798046e-03
	4.979831764667508e-02
	8.349103957741852e-02
	3.344911498747516e-02
	-2.635547033741403e-02
	-7.845950818721276e-03
	3.317652713130292e-02

 13	8.469781355522816e-10
	5.049721526774711e-01
	5.049721526774711e-01
	5.049721526774711e-01
	5.049721526774711e-01
	3.891394146717991e-03
	-2.170752985999647e-02
	-4.252751817768044e-02
	-3.002701603468651e-02
	2.500955554897316e-02
	1.488987078635345e-02
	2.400481739654187e+00

 14	9.477130147650095e-10
	1.725470512754690e-01
	1.725470512754690e-01
	1.725470512754690e-01
	1.725470512754690e-01
	1.098279092139108e-02
	3.208838594916874e-02
	3.863713147503248e-02
	5.045335750848140e-02
	1.788369502905837e-02
	7.152069515070192e-03
	3.593913606896501e+00

 15	1.000000000000000e-09
	0.000000000000000e+00
	0.000000000000000e+00
	0.000000000000000e+00
	0.000000000000000e+00
	8.150112468631010e-03
	-2.436540271961379e-02
	-1.851194650005639e-02
	-2.217015379718290e-02
	-6.097490477899536e-03
	1.906303882209318e-03
	3.261088346920793e+00

 16	1.009241802136448e-09
	0.000000000000000e+00
	0.000000000000000e+00
	0.000000000000000e+00
	0.000000000000000e+00
	8.033170369728809e-03
	-2.553351497312062e-03
	-1.727327432996417e-03
	-4.479952329333459e-04
	-2.806171836116755e-03
	2.893013276267065e-03
	3.275748119244092e+00

 17	1.027725406409345e-09
	0.000000000000000e+00
	0.000000000000000e+00
	0.000000000000000e+00
	0.000000000000000e+00
	6.916353272927306e-03
	6.575798223849239e-03
	3.797568690988906e-03
	8.206909743513985e-03
	9.310163003902749e-04
	3.557460234530130e-03
	3.293073011315364e+00

 18	1.064692614955137e-09
	0.000000000000000e+00
	0.000000000000000e+00
	0.000000000000000e+00
	0.000000000000000e+00
	3.225211477907677e-03
	-3.330810881869706e-04
	-6.520636015912573e-04
	5.723824181042836e-04
	9.060978076389503e-04
	1.764333426027997e-03
	3.299972352129037e+00

 19	1.138627032046723e-09
	0.000000000000000e+00
	0.000000000000000e+00
	0.000000000000000e+00
	0.000000000000000e+00
	4.139502265281814e-04
	1.783510910228159e-03
	1.202457715797078e-03
	2.111782945162705e-03
	1.228447202074046e-04
	1.378128965404957e-04
	3.300095742708518e+00

 20	1.286495866229894e-09
	0.000000000000000e+00
	0.000000000000000e+00
	0.000000000000000e+00
	0.000000000000000e+00
	1.755491901795359e-04
	-1.538719973425640e-03
	-1.026779812892842e-03
	-1.453641453572560e-03
	1.690263447838292e-04
	1.355390824035463e-04
	3.299943030876605e+00

 21	1.582233534596236e-09
	0.000000000000000e+00
	0.000000000000000e+00
	0.000000000000000e+00
	0.000000000000000e+00
	-5.826381123825303e-05
	1.524230337177246e-03
	1.050274630743558e-03
	1.532446361862255e-03
	-8.733316929418478e-05
	-7.209337880301203e-05
	3.300071495226149e+00

 22	2.173708871328921e-09
	0.000000000000000e+00
	0.000000000000000e+00
	0.000000000000000e+00
	0.000000000000000e+00
	8.160369628098033e-05
	-1.496636533591902e-03
	-1.035339605407332e-03
	-1.489563997816370e-03
	9.484638234603243e-05
	7.992499137904688e-05
	3.299927903004698e+00

 23	3.173708871328921e-09
	0.000000000000000e+00
	0.000000000000000e+00
	0.000000000000000e+00
	0.000000000000000e+00
	-7.475485953973258e-05
	1.485728866397452e-03
	1.032955085611218e-03
	1.484148265358354e-03
	-8.744013248377508e-05
	-7.446819340217389e-05
	3.300073507569031e+00

 24	4.173708871328920e-09
	0.000000000000000e+00
	0.000000000000000e+00
	0.000000000000000e+00
	0.000000000000000e+00
	7.564264009039812e-05
	-1.472312700740469e-03
	-1.027684388226584e-03
	-1.470814829718458e-03
	8.517454670607313e-05
	7.352946288438113e-05
	3.299925197654526e+00

 25	5.173708871328920e-09
	0.000000000000000e+00
	0.000000000000000e+00
	0.000000000000000e+00
	0.000000000000000e+00
	-7.319622646162656e-05
	1.460368590926367e-03
	1.023642214304663e-03
	1.460809374002833e-03
	-8.090684059211539e-05
	-7.064390628759749e-05
	3.300075750945821e+00

 26	6.173708871328920e-09
	0.000000000000000e+00
	0.000000000000000e+00
	0.000000000000000e+00
	0.000000000000000e+00
	7.270491518871110e-05
	-1.447340444636042e-03
	-1.018539186276163e-03
	-1.448616028459544e-03
	7.819279861235109e-05
	6.923913386544696e-05
	3.299922980653763e+00

 27	7.173708871328920e-09
	0.000000000000000e+00
	0.000000000000000e+00
	0.000000000000000e+00
	0.000000000000000e+00
	-7.068296245815037e-05
	1.435330400523710e-03
	1.014110773109887e-03
	1.437969567780147e-03
	-7.461321158654111e-05
	-6.685764127489606e-05
	3.300077798930737e+00

 28	8.173708871328920e-09
	0.000000000000000e+00
	0.000000000000000e+00
	0.000000000000000e+00
	0.000000000000000e+00
	6.981940668449038e-05
	-1.422465619583757e-03
	-1.008908356498698e-03
	-1.425975447938554e-03
	7.203794982191952e-05
	6.548474435821849e-05
	3.299921038668742e+00

 29	9.173708871328921e-09
	0.000000000000000e+00
	0.000000000000000e+00
	0.000000000000000e+00
	0.000000000000000e+00
	-6.792073250350486e-05
	1.410502364957079e-03
	1.004248663202575e-03
	1.415087496655181e-03
	-6.888388904108950e-05
	-6.338190595629213e-05
	3.300079598366802e+00

 30	1.017370887132892e-08
	0.000000000000000e+00
	0.000000000000000e+00
	0.000000000000000e+00
	0.000000000000000e+00
	6.693395351160640e-05
	-1.397771430438309e-03
	-9.989240139338974e-04
	-1.403148072307667e-03
	6.653697021475474e-05
	6.211830232836710e-05
	3.299919358931740e+00

 31	1.117370887132892e-08
	0.000000000000000e+00
	0.000000000000000e+00
	0.000000000000000e+00
	0.000000000000000e+00
	-6.512290096659899e-05
	1.385896355167691e-03
	9.940965868500060e-04
	1.392148590827265e-03
	-6.372019416539532e-05
	-6.022000808407653e-05
	3.300081145089298e+00

 32	1.217370887132892e-08
	0.000000000000000e+00
	0.000000000000000e+00
	0.000000000000000e+00
	0.000000000000000e+00
	6.411513166607909e-05
	-1.373299400557880e-03
	-9.886627396333662e-04
	-1.380241961040120e-03
	6.161233950091605e-05
	5.907764124327836e-05
	3.299917932708721e+00

 33	1.317370887132892e-08
	0.000000000000000e+00
	0.000000000000000e+00
	0.000000000000000e+00
	0.000000000000000e+00
	-6.239059629572184e-05
	1.361536331817417e-03
	9.837088214872010e-04
	1.369199745240537e-03
	-5.908332600576549e-05
	-5.734472407748804e-05
	3.300082445958560e+00

 34	1.417370887132892e-08
	0.000000000000000e+00
	0.000000000000000e+00
	0.000000000000000e+00
	0.000000000000000e+00
	6.141016640989587e-05
	-1.349080173494659e-03
	-9.781860357643661e-04
	-1.357334675819135e-03
	5.720408391313853e-05
	5.631876647876899e-05
	3.299916748349582e+00

 35	1.517370887132892e-08
	0.000000000000000e+00
	0.000000000000000e+00
	0.000000000000000e+00
	0.000000000000000e+00
	-5.977378775484134e-05
	1.337445757874471e-03
	9.731371430448076e-04
	1.346296023981154e-03
	-5.492670779153747e-05
	-5.472475604226604e-05
	3.300083512833596e+00

 36	1.617370887132892e-08
	0.000000000000000e+00
	0.000000000000000e+00
	0.000000000000000e+00
	0.000000000000000e+00
	5.884414882162750e-05
	-1.325138384772204e-03
	-9.675460511389122e-04
	-1.334489609362853e-03
	5.325886482502457e-05
	5.380548583868057e-05
	3.299915791724449e+00

 37	1.717370887132892e-08
	0.000000000000000e+00
	0.000000000000000e+00
	0.000000000000000e+00
	0.000000000000000e+00
	-5.729517117985389e-05
	1.313645188811989e-03
	9.624277655302209e-04
	1.323489176074152e-03
	-5.120346800763925e-05
	-5.233021362571581e-05
	3.300084360232428e+00

 38	1.817370887132892e-08
	0.000000000000000e+00
	0.000000000000000e+00
	0.000000000000000e+00
	0.000000000000000e+00
	5.642674531420623e-05
	-1.301494090108921e-03
	-9.567874077452861e-04
	-1.311759721575493e-03
	4.972793836933997e-05
	5.150683322819108e-05
	3.299915047191881e+00

 39	1.900000000000000e-08
	0.000000000000000e+00
	0.000000000000000e+00
	0.000000000000000e+00
	0.000000000000000e+00
	-5.472267281218107e-05
	1.287736905974786e-03
	9.504949408811816e-04
	1.298488767750419e-03
	-4.753771928695666e-05
	-4.991166522667727e-05
	3.300085060903177e+00

 40	1.910000000000000e-08
	0.000000000000000e+00
	0.000000000000000e+00
	0.000000000000000e+00
	3.300000000000030e-01
	2.837890031708035e-04
	2.561628346245681e-04
	3.872326903386902e-05
	2.889999454210312e-04
	2.397073208774692e-04
	3.218119937325389e-04
	3.300025405798423e+00

 41	1.930000000000000e-08
	0.000000000000000e+00
	0.000000000000000e+00
	0.000000000000000e+00
	9.899999999999980e-01
	-4.131285606428829e-03
	-5.489362506306827e-04
	-1.346351616718366e-04
	-4.417882147523589e-03
	-1.183022016589230e-02
	-4.082912029690126e-03
	3.299953799586373e+00

 42	1.951224264991240e-08
	0.000000000000000e+00
	0.000000000000000e+00
	0.000000000000000e+00
	1.690400744710915e+00
	5.016888179909225e-01
	-1.261928283169678e-04
	-1.415037600251134e-04
	5.088537756913278e-01
	2.548071226812716e+00
	5.284502369538897e-01
	3.299950224058315e+00

 43	1.968474576150292e-08
	0.000000000000000e+00
	0.000000000000000e+00
	0.000000000000000e+00
	2.259661012959633e+00
	2.206407175300338e+00
	-9.300123182424125e-04
	-5.055638442368893e-04
	2.220493029185207e+00
	3.432808199629883e+00
	2.243736454491939e+00
	3.299843699394614e+00

 44	1.986517826548519e-08
	0.000000000000000e+00
	0.000000000000000e+00
	0.000000000000000e+00
	2.855088276101120e+00
	3.338673140699387e+00
	2.402097880136844e-03
	1.240271261960135e-03
	3.343667347344573e+00
	3.195442362933599e+00
	3.342043023938226e+00
	3.300605964723090e+00

 45	2.000000000000000e-08
	0.000000000000000e+00
	0.000000000000000e+00
	0.000000000000000e+00
	3.300000000000000e+00
	3.276763344267161e+00
	-1.424078574162657e-03
	-6.563851259906162e-04
	3.274905904781201e+00
	3.373583713790641e+00
	3.274330428392784e+00
	3.299313091689112e+00

 46	2.001752351837970e-08
	0.000000000000000e+00
	0.000000000000000e+00
	0.000000000000000e+00
	3.300000000000000e+00
	3.287929070051923e+00
	-1.425658622182358e-03
	-4.933669691046250e-04
	3.286889675397617e+00
	3.327165810247901e+00
	3.287009290055404e+00
	3.299534193289647e+00

 47	2.005257055513910e-08
	0.000000000000000e+00
	0.000000000000000e+00
	0.000000000000000e+00
	3.300000000000000e+00
	3.299272591382421e+00
	-3.811389891722472e-04
	9.617789632820894e-06
	3.299231640876978e+00
	3.293515366168222e+00
	3.299635858625712e+00
	3.300067512319087e+00

 48	2.012266462865791e-08
	0.000000000000000e+00
	0.000000000000000e+00
	0.000000000000000e+00
	3.300000000000000e+00
	3.300195063238456e+00
	5.349475565037398e-04
	1.279961865378598e-04
	3.300242790025453e+00
	3.303637661218431e+00
	3.300071890535549e+00
	3.300139037847767e+00

 49	2.026285277569552e-08
	0.000000000000000e+00
	0.000000000000000e+00
	0.000000000000000e+00
	3.300000000000000e+00
	3.299921156466395e+00
	-2.472935550137390e-04
	-1.067625635540470e-04
	3.299911626791367e+00
	3.297237713251383e+00
	3.299985241267553e+00
	3.299871560143710e+00

 50	2.050761309843292e-08
	0.000000000000000e+00
	0.000000000000000e+00
	0.000000000000000e+00
	3.300000000000000e+00
	3.300036131569968e+00
	2.365850365100008e-04
	9.816084896073496e-05
	3.300055199289525e+00
	3.302356960566660e+00
	3.299997358553078e+00
	3.300113525424568e+00

 51	2.099713374390770e-08
	0.000000000000000e+00
	0.000000000000000e+00
	0.000000000000000e+00
	3.300000000000000e+00
	3.299980027792119e+00
	-2.035497309543360e-04
	-9.095999138794553e-05
	3.299962617709064e+00
	3.297821345415652e+00
	3.300008487386850e+00
	3.299894569315846e+00

 52	2.197617503485728e-08
	0.000000000000000e+00
	0.000000000000000e+00
	0.000000000000000e+00
	3.300000000000000e+00
	3.300013505692129e+00
	1.962411110064677e-04
	8.867992384527235e-05
	3.300031462454682e+00
	3.302094380266404e+00
	3.299988936416179e+00
	3.300101259338459e+00

 53	2.297617503485727e-08
	0.000000000000000e+00
	0.000000000000000e+00
	0.000000000000000e+00
	3.300000000000000e+00
	3.299992340071680e+00
	-1.858824937733886e-04
	-8.555434023674313e-05
	3.299974467791476e+00
	3.297984788063560e+00
	3.300013078675561e+00
	3.299902397698702e+00

 54	2.397617503485727e-08
	0.000000000000000e+00
	0.000000000000000e+00
	0.000000000000000e+00
	3.300000000000000e+00
	3.300002285255565e+00
	1.776996663368155e-04
	8.310940258118849e-05
	3.300020286583483e+00
	3.301938853052303e+00
	3.299984929989407e+00
	3.300093549489058e+00

 55	2.497617503485727e-08
	0.000000000000000e+00
	0.000000000000000e+00
	0.000000000000000e+00
	3.300000000000000e+00
	3.300002418812133e+00
	-1.688219919468159e-04
	-8.016910209378975e-05
	3.299984407282437e+00
	3.298134439511632e+00
	3.300016602461398e+00
	3.299909949725982e+00

 56	2.597617503485727e-08
	0.000000000000000e+00
	0.000000000000000e+00
	0.000000000000000e+00
	3.300000000000000e+00
	3.299993172237310e+00
	1.613006002598519e-04
	7.778447137621672e-05
	3.300011237111936e+00
	3.301794854169410e+00
	3.299981839833109e+00
	3.300086144988629e+00

 57	2.697617503485727e-08
	0.000000000000000e+00
	0.000000000000000e+00
	0.000000000000000e+00
	3.300000000000000e+00
	3.300010616093629e+00
	-1.533689587620499e-04
	-7.497577326679578e-05
	3.299992536118102e+00
	3.298273005020462e+00
	3.300019298542357e+00
	3.299917174340156e+00

 58	2.797617503485727e-08
	0.000000000000000e+00
	0.000000000000000e+00
	0.000000000000000e+00
	3.300000000000000e+00
	3.299985788277862e+00
	1.465664185351448e-04
	7.269252587305264e-05
	3.300003886937543e+00
	3.301661516825686e+00
	3.299979497210740e+00
	3.300079105675826e+00

 59	2.897617503485727e-08
	0.000000000000000e+00
	0.000000000000000e+00
	0.000000000000000e+00
	3.300000000000000e+00
	3.300017238572796e+00
	-1.394245504967098e-04
	-7.001233133551582e-05
	3.299999140722481e+00
	3.298401317116344e+00
	3.300021320603078e+00
	3.299924012923924e+00

 60	2.997617503485727e-08
	0.000000000000000e+00
	0.000000000000000e+00
	0.000000000000000e+00
	3.300000000000000e+00
	3.299979848513046e+00
	1.332984166927537e-04
	6.784572972220668e-05
	3.299997942101339e+00
	3.301538041231181e+00
	3.299977762095829e+00
	3.300072472294622e+00

 61	3.097617503485727e-08
	0.000000000000000e+00
	0.000000000000000e+00
	0.000000000000000e+00
	3.300000000000000e+00
	3.300022545515609e+00
	-1.268465102138433e-04
	-6.529543581609148e-05
	3.300004478554579e+00
	3.298520144081658e+00
	3.300022796063337e+00
	3.299930433681150e+00

 62	3.197617503485727e-08
	0.000000000000000e+00
	0.000000000000000e+00
	0.000000000000000e+00
	3.300000000000000e+00
	3.299975111827196e+00
	1.213358813032875e-04
	6.325221560161964e-05
	3.299993150556646e+00
	3.301423689189609e+00
	3.299976518492866e+00
	3.300066265976709e+00

 63	3.297617503485728e-08
	0.000000000000000e+00
	0.000000000000000e+00
	0.000000000000000e+00
	3.300000000000000e+00
	3.300026756140651e+00
	-1.154931417737884e-04
	-6.083231991623611e-05
	3.300008764067327e+00
	3.298630195163184e+00
	3.300023830390948e+00
	3.299936423055836e+00

 64	3.397617503485728e-08
	0.000000000000000e+00
	0.000000000000000e+00
	0.000000000000000e+00
	3.300000000000000e+00
	3.299971376151757e+00
	1.105360969863717e-04
	5.891476271964458e-05
	3.299989316875146e+00
	3.301317779122316e+00
	3.299975670513656e+00
	3.300060492925045e+00

 65	3.497617503485728e-08
	0.000000000000000e+00
	0.000000000000000e+00
	0.000000000000000e+00
	3.300000000000000e+00
	3.300030054963750e+00
	-1.052332565921604e-04
	-5.662413396641947e-05
	3.300012180376598e+00
	3.298732125313664e+00
	3.300024510630385e+00
	3.299941980535724e+00

 66	3.597617503485728e-08
	0.000000000000000e+00
	0.000000000000000e+00
	0.000000000000000e+00
	3.300000000000000e+00
	3.299968471944740e+00
	1.007718491279758e-04
	5.483171265937420e-05
	3.299986274380867e+00
	3.301219681537048e+00
	3.299975139152002e+00
	3.300055148501181e+00

 67	3.697617503485728e-08
	0.000000000000000e+00
	0.000000000000000e+00
	0.000000000000000e+00
	3.300000000000000e+00
	3.300032597006342e+00
	-9.594860062570737e-05
	-5.266773831329175e-05
	3.300014878861592e+00
	3.298826539528605e+00
	3.300024908405613e+00
	3.299947114845343e+00

 68	3.797617503485729e-08
	0.000000000000000e+00
	0.000000000000000e+00
	0.000000000000000e+00
	3.300000000000000e+00
	3.299966256972980e+00
	9.193030356699494e-05
	5.099802859861655e-05
	3.299983884435988e+00
	3.301128814884071e+00
	3.299974859479338e+00
	3.300050220424421e+00

 69	3.897617503485729e-08
	0.000000000000000e+00
	0.000000000000000e+00
	0.000000000000000e+00
	3.300000000000000e+00
	3.300034512355491e+00
	-8.753393055112302e-05
	-4.895693114404659e-05
	3.300016985651169e+00
	3.298913996804139e+00
	3.300025082494584e+00
	3.299951841083432e+00

 70	3.900000000000001e-08
	0.000000000000000e+00
	0.000000000000000e+00
	0.000000000000000e+00
	3.300000000000000e+00
	3.299966899254008e+00
	1.821929496048647e-06
	6.531748432792028e-06
	3.299977628849965e+00
	3.300080223662114e+00
	3.299981792741962e+00
	3.299998889680670e+00

 71	3.904107910741087e-08
	0.000000000000000e+00
	0.000000000000000e+00
	1.355610544558399e-01
	3.300000000000000e+00
	3.300069335085638e+00
	2.923967713550080e-04
	3.852168799798328e-04
	3.300190734865851e+00
	3.300027771452348e+00
	3.300206415742827e+00
	3.300072725670342e+00

 72	3.912323732223259e-08
	0.000000000000000e+00
	0.000000000000000e+00
	4.066831633675196e-01
	3.300000000000000e+00
	3.299995822071502e+00
	9.340063378127095e-05
	-7.527676147406348e-05
	3.300004033629126e+00
	3.299975042232189e+00
	3.300049228216358e+00
	3.299989949150289e+00

 73	3.924644853167701e-08
	0.000000000000000e+00
	0.000000000000000e+00
	8.132801545341243e-01
	3.300000000000000e+00
	3.299821342439793e+00
	-1.430446515063299e-04
	-3.244622076161718e-04
	3.299845810483273e+00
	3.299913478036831e+00
	3.296948201698746e+00
	3.299867591921198e+00

 74	3.936779530748269e-08
	0.000000000000000e+00
	0.000000000000000e+00
	1.213724514692862e+00
	3.300000000000000e+00
	3.299884003797539e+00
	5.752863271851760e-05
	3.206908151711929e-04
	3.299977240592903e+00
	3.299953552237046e+00
	3.284264751491583e+00
	3.299954656615196e+00

 75	3.948181026259634e-08
	0.000000000000000e+00
	0.000000000000000e+00
	1.589973866567889e+00
	3.300000000000000e+00
	3.299878642263348e+00
	-2.479347604005810e-04
	-2.482476031921421e-04
	3.299918054917619e+00
	3.300035155999504e+00
	3.272208374700673e+00
	3.300208764486257e+00

 76	3.962960880130643e-08
	0.000000000000000e+00
	0.000000000000000e+00
	2.077709044311197e+00
	3.300000000000000e+00
	3.301652192348171e+00
	-2.912970194898223e-04
	2.053102429677711e-04
	3.302636877946748e+00
	3.302849965047765e+00
	3.296653726314735e+00
	3.307629898577594e+00

 77	3.978072405122769e-08
	0.000000000000000e+00
	0.000000000000000e+00
	2.576389369051375e+00
	3.300000000000000e+00
	3.312158746429648e+00
	3.287022403047346e-04
	-1.255940451008186e-04
	2.904803901055943e+00
	3.328435647199831e+00
	3.299266287343011e+00
	2.098892081662754e+00

 78	3.992216919962069e-08
	0.000000000000000e+00
	0.000000000000000e+00
	3.043158358748252e+00
	3.300000000000000e+00
	1.358207293185569e+00
	1.639345015285176e-04
	4.884276241623464e-06
	5.326824083834314e-01
	3.296455493955119e+00
	3.300142305938506e+00
	2.005440277583523e-01

 79	4.000000000000000e-08
	0.000000000000000e+00
	0.000000000000000e+00
	3.299999999999986e+00
	3.300000000000000e+00
	1.124820297791015e-01
	-4.022767850749842e-04
	-7.249274410681128e-05
	-7.546074902590744e-02
	3.297955022639007e+00
	3.299439560567035e+00
	-5.423272193465001e-02

 80	4.001480446812733e-08
	0.000000000000000e+00
	0.000000000000000e+00
	3.300000000000000e+00
	3.251145255179809e+00
	8.019095206048601e-02
	-8.443338008077284e-04
	-3.804044071740176e-04
	-3.255622147275461e-02
	3.299203779666553e+00
	3.299557774898001e+00
	-2.757361062618013e-02

 81	4.004441340438199e-08
	0.000000000000000e+00
	0.000000000000000e+00
	3.300000000000000e+00
	3.153435765539426e+00
	3.760840796320325e-02
	-7.914266887375510e-04
	-1.585675040145507e-04
	-1.059896933355314e-03
	3.300268694591112e+00
	3.299801037794592e+00
	-5.321432053699837e-04

 82	4.010363127689132e-08
	0.000000000000000e+00
	0.000000000000000e+00
	3.300000000000000e+00
	2.958016786258660e+00
	6.967832506895977e-03
	1.089349772327997e-04
	2.833000616028758e-04
	-7.406517924795353e-04
	3.299963831020213e+00
	3.300047348566809e+00
	-1.223962401660783e-04

 83	4.022206702190997e-08
	0.000000000000000e+00
	0.000000000000000e+00
	3.300000000000000e+00
	2.567178827697106e+00
	-1.269060645614287e-03
	-1.146385898954660e-04
	-1.026142346059744e-04
	1.364373934540558e-03
	3.300571359080159e+00
	3.300391290808535e+00
	6.163467180464455e-06

 84	4.037749752488780e-08
	0.000000000000000e+00
	0.000000000000000e+00
	3.300000000000000e+00
	2.054258167870275e+00
	8.524531004307223e-04
	3.045476270359115e-04
	1.480814584586820e-04
	-1.171151159788289e-03
	3.302322906034730e+00
	3.301684073222396e+00
	4.361246682735298e-05

 85	4.058974208486038e-08
	0.000000000000000e+00
	0.000000000000000e+00
	3.300000000000000e+00
	1.353851119960755e+00
	-5.227060394735888e-04
	3.404417821172567e-04
	-1.445679191086902e-04
	1.555341620756684e-03
	3.305537463434924e+00
	3.302803624762205e+00
	7.555655334068323e-05

 86	4.061798284556131e-08
	0.000000000000000e+00
	0.000000000000000e+00
	3.300000000000000e+00
	1.260656609647687e+00
	1.405165907138878e-04
	6.979102542473692e-04
	-1.342646057318209e-03
	5.771217656761196e-04
	3.307336095272917e+00
	3.303413287053981e+00
	1.540122662500587e-04

 87	4.067446436696317e-08
	0.000000000000000e+00
	0.000000000000000e+00
	3.300000000000000e+00
	1.074267589021551e+00
	2.953568498291342e-04
	1.210197203067531e-03
	-7.892572300095546e-03
	5.867960994294097e-04
	3.313951768116411e+00
	3.306115327694351e+00
	1.919618243467758e-04

 88	4.072955364403114e-08
	0.000000000000000e+00
	0.000000000000000e+00
	3.300000000000000e+00
	8.924729746972417e-01
	9.938637970816067e-05
	1.194998938188585e-03
	2.464282490622205e-02
	7.623184549091777e-04
	2.282651805948655e+00
	3.312360836596111e+00
	-4.872386100290838e-05

 89	4.079386659313074e-08
	0.000000000000000e+00
	0.000000000000000e+00
	3.300000000000000e+00
	6.802402426685505e-01
	-3.037169753283275e-04
	2.781324481054837e-05
	4.362056053323013e-01
	1.747047015487335e-04
	4.972272290037064e-01
	3.327249262213885e+00
	-4.349579310954921e-04

 90	4.085535168303016e-08
	0.000000000000000e+00
	0.000000000000000e+00
	3.300000000000000e+00
	4.773394460004852e-01
	-5.096128655376897e-04
	-1.808977512569421e-03
	1.639503998715263e+00
	-5.308992601297802e-04
	-4.145505398158139e-02
	3.330502413459726e+00
	-1.465046623562727e-04

 91	4.093569095388773e-08
	0.000000000000000e+00
	0.000000000000000e+00
	3.300000000000000e+00
	2.122198521704859e-01
	1.157004983953075e-04
	-1.911629500826129e-03
	3.100620839687902e+00
	-1.343273314212995e-03
	1.921586223563737e-02
	3.310868449994913e+00
	1.612780046408857e-04

 92	4.100000000000000e-08
	0.000000000000000e+00
	0.000000000000000e+00
	3.300000000000000e+00
	0.000000000000000e+00
	3.610800596713648e-05
	-5.688437185855100e-04
	3.336064568097838e+00
	-2.170663056361155e-05
	-3.618819305821253e-03
	3.301594907725948e+00
	-3.802159361754320e-05

 93	4.100896027257290e-08
	0.000000000000000e+00
	0.000000000000000e+00
	3.300000000000000e+00
	0.000000000000000e+00
	4.495918102588037e-04
	8.341841999970345e-05
	3.325354856709019e+00
	3.413068787898321e-04
	-4.099800975827850e-03
	3.301206293153418e+00
	1.557296262337804e-04

 94	4.102688081771870e-08
	0.000000000000000e+00
	0.000000000000000e+00
	3.300000000000000e+00
	0.000000000000000e+00
	7.342521474901220e-04
	7.979621384605062e-04
	3.310086411514630e+00
	6.788630688580044e-04
	-7.381921545728254e-04
	3.300956334107970e+00
	3.005369201082297e-04

 95	4.106272190801030e-08
	0.000000000000000e+00
	0.000000000000000e+00
	3.300000000000000e+00
	0.000000000000000e+00
	2.638693155669891e-04
	5.372905348939305e-04
	3.300482954965686e+00
	2.556829345242706e-04
	8.870704262101681e-04
	3.300471487290080e+00
	6.751386657921632e-05

 96	4.113440408859350e-08
	0.000000000000000e+00
	0.000000000000000e+00
	3.300000000000000e+00
	0.000000000000000e+00
	-2.661521403503342e-05
	1.203605817311493e-04
	3.299762697064139e+00
	-1.173247331558436e-04
	-5.731155275016664e-04
	3.299982092560240e+00
	-2.659824082695827e-05

 97	4.127776844975990e-08
	0.000000000000000e+00
	0.000000000000000e+00
	3.300000000000000e+00
	0.000000000000000e+00
	1.864205709763145e-05
	8.794865026770515e-05
	3.300108986970753e+00
	3.987785334899629e-05
	5.511037353864989e-04
	3.300053213197085e+00
	2.087224783062225e-05

 98	4.156449717209269e-08
	0.000000000000000e+00
	0.000000000000000e+00
	3.300000000000000e+00
	0.000000000000000e+00
	-1.447621478027628e-05
	-3.245146569821888e-05
	3.299911916196697e+00
	-3.622381089296578e-05
	-5.275943923392784e-04
	3.299951762687563e+00
	-1.726860260546637e-05

 99	4.213795461675828e-08
	0.000000000000000e+00
	0.000000000000000e+00
	3.300000000000000e+00
	0.000000000000000e+00
	1.404580708955563e-05
	3.597967537537217e-05
	3.300065427254711e+00
	3.408367951744651e-05
	5.201336691655345e-04
	3.300049462504079e+00
	1.608531806539942e-05

 100	4.313795461675828e-08
	0.000000000000000e+00
	0.000000000000000e+00
	3.300000000000000e+00
	0.000000000000000e+00
	-1.279629830623977e-05
	-3.222259071520434e-05
	3.299929332703534e+00
	-3.204184543728963e-05
	-5.146988995426947e-04
	3.299951028645331e+00
	-1.514419588153487e-05

 101	4.413795461675829e-08
	0.000000000000000e+00
	0.000000000000000e+00
	3.300000000000000e+00
	0.000000000000000e+00
	1.261987637437949e-05
	3.138870289310508e-05
	3.300052587223075e+00
	3.096622090278597e-05
	5.102975701322052e-04
	3.300048839570822e+00
	1.467344548983229e-05

 102	4.513795461675829e-08
	0.000000000000000e+00
	0.000000000000000e+00
	3.300000000000000e+00
	0.000000000000000e+00
	-1.168995195297354e-05
	-2.939882207361050e-05
	3.299939366541099e+00
	-2.925700898917527e-05
	-5.053373163260190e-04
	3.299951395230998e+00
	-1.382277447312813e-05

 103	4.613795461675829e-08
	0.000000000000000e+00
	0.000000000000000e+00
	3.300000000000000e+00
	0.000000000000000e+00
	1.151152169829271e-05
	2.855438937502536e-05
	3.300041901648841e+00
	2.828273851816082e-05
	5.010664478889357e-04
	3.300048292361740e+00
	1.343550717096409e-05

 104	4.713795461675829e-08
	0.000000000000000e+00
	0.000000000000000e+00
	3.300000000000000e+00
	0.000000000000000e+00
	-1.071627829254788e-05
	-2.702209282404167e-05
	3.299947947297873e+00
	-2.677995210077083e-05
	-4.963545655728117e-04
	3.299951917310335e+00
	-1.266272646300443e-05
