Title: * spice3 file created from seg_a.ext - technology: tsmc
Date: Wed Apr 26 16:35:16  2017
Plotname: Transient Analysis
Flags: real
No. Variables: 6
No. Points: 561
Variables:
	0	time	time
	1	a	voltage
	2	b	voltage
	3	c	voltage
	4	d	voltage
	5	y	voltage
Values:
 0	0.000000000000000e+00
	0.000000000000000e+00
	0.000000000000000e+00
	0.000000000000000e+00
	0.000000000000000e+00
	1.358473927708442e-07

 1	1.000000000000000e-11
	0.000000000000000e+00
	0.000000000000000e+00
	0.000000000000000e+00
	0.000000000000000e+00
	1.358475541779480e-07

 2	2.000000000000000e-11
	0.000000000000000e+00
	0.000000000000000e+00
	0.000000000000000e+00
	0.000000000000000e+00
	1.358475918838975e-07

 3	4.000000000000000e-11
	0.000000000000000e+00
	0.000000000000000e+00
	0.000000000000000e+00
	0.000000000000000e+00
	1.358476024171384e-07

 4	8.000000000000001e-11
	0.000000000000000e+00
	0.000000000000000e+00
	0.000000000000000e+00
	0.000000000000000e+00
	1.358472770732200e-07

 5	1.600000000000000e-10
	0.000000000000000e+00
	0.000000000000000e+00
	0.000000000000000e+00
	0.000000000000000e+00
	1.358471336046496e-07

 6	3.200000000000000e-10
	0.000000000000000e+00
	0.000000000000000e+00
	0.000000000000000e+00
	0.000000000000000e+00
	1.358477082578219e-07

 7	6.400000000000001e-10
	0.000000000000000e+00
	0.000000000000000e+00
	0.000000000000000e+00
	0.000000000000000e+00
	1.358471619743173e-07

 8	1.280000000000000e-09
	0.000000000000000e+00
	0.000000000000000e+00
	0.000000000000000e+00
	0.000000000000000e+00
	1.358475497812914e-07

 9	2.000000000000000e-09
	0.000000000000000e+00
	0.000000000000000e+00
	0.000000000000000e+00
	0.000000000000000e+00
	1.358473018836688e-07

 10	2.100000000000000e-09
	3.300000000000002e-01
	3.300000000000002e-01
	3.300000000000002e-01
	3.300000000000002e-01
	8.671416412078681e-04

 11	2.300000000000000e-09
	9.900000000000007e-01
	9.900000000000007e-01
	9.900000000000007e-01
	9.900000000000007e-01
	-1.286463125251571e-02

 12	2.465372321299380e-09
	1.535728660287953e+00
	1.535728660287953e+00
	1.535728660287953e+00
	1.535728660287953e+00
	2.409049921293174e-01

 13	2.621078264098465e-09
	2.049558271524933e+00
	2.049558271524933e+00
	2.049558271524933e+00
	2.049558271524933e+00
	2.322268031915697e-01

 14	2.761548874913625e-09
	2.513111287214963e+00
	2.513111287214963e+00
	2.513111287214963e+00
	2.513111287214963e+00
	-4.176670245323214e-02

 15	2.922249594762409e-09
	3.043423662715949e+00
	3.043423662715949e+00
	3.043423662715949e+00
	3.043423662715949e+00
	1.708656406223760e-02

 16	3.000000000000000e-09
	3.300000000000000e+00
	3.300000000000000e+00
	3.300000000000000e+00
	3.300000000000000e+00
	3.462958950504046e-03

 17	3.019462548883555e-09
	3.300000000000000e+00
	3.300000000000000e+00
	3.300000000000000e+00
	3.300000000000000e+00
	-2.758515191847728e-03

 18	3.058387646650665e-09
	3.300000000000000e+00
	3.300000000000000e+00
	3.300000000000000e+00
	3.300000000000000e+00
	-5.039463222872055e-03

 19	3.136237842184885e-09
	3.300000000000000e+00
	3.300000000000000e+00
	3.300000000000000e+00
	3.300000000000000e+00
	1.621824998855066e-03

 20	3.291938233253324e-09
	3.300000000000000e+00
	3.300000000000000e+00
	3.300000000000000e+00
	3.300000000000000e+00
	-1.193448599016426e-03

 21	3.569890074923129e-09
	3.300000000000000e+00
	3.300000000000000e+00
	3.300000000000000e+00
	3.300000000000000e+00
	9.882727391095324e-04

 22	4.125793758262737e-09
	3.300000000000000e+00
	3.300000000000000e+00
	3.300000000000000e+00
	3.300000000000000e+00
	-8.949840651270571e-04

 23	5.125793758262737e-09
	3.300000000000000e+00
	3.300000000000000e+00
	3.300000000000000e+00
	3.300000000000000e+00
	8.471258412589911e-04

 24	6.125793758262737e-09
	3.300000000000000e+00
	3.300000000000000e+00
	3.300000000000000e+00
	3.300000000000000e+00
	-8.001314107936490e-04

 25	7.125793758262737e-09
	3.300000000000000e+00
	3.300000000000000e+00
	3.300000000000000e+00
	3.300000000000000e+00
	7.562767120352404e-04

 26	8.125793758262738e-09
	3.300000000000000e+00
	3.300000000000000e+00
	3.300000000000000e+00
	3.300000000000000e+00
	-7.132437137475187e-04

 27	9.125793758262738e-09
	3.300000000000000e+00
	3.300000000000000e+00
	3.300000000000000e+00
	3.300000000000000e+00
	6.731409705999073e-04

 28	1.012579375826274e-08
	3.300000000000000e+00
	3.300000000000000e+00
	3.300000000000000e+00
	3.300000000000000e+00
	-6.337997749963813e-04

 29	1.112579375826274e-08
	3.300000000000000e+00
	3.300000000000000e+00
	3.300000000000000e+00
	3.300000000000000e+00
	5.971875062737685e-04

 30	1.212579375826274e-08
	3.300000000000000e+00
	3.300000000000000e+00
	3.300000000000000e+00
	3.300000000000000e+00
	-5.612664572675892e-04

 31	1.312579375826274e-08
	3.300000000000000e+00
	3.300000000000000e+00
	3.300000000000000e+00
	3.300000000000000e+00
	5.278844852482506e-04

 32	1.412579375826274e-08
	3.300000000000000e+00
	3.300000000000000e+00
	3.300000000000000e+00
	3.300000000000000e+00
	-4.951185189650386e-04

 33	1.512579375826274e-08
	3.300000000000000e+00
	3.300000000000000e+00
	3.300000000000000e+00
	3.300000000000000e+00
	4.646954320815006e-04

 34	1.612579375826274e-08
	3.300000000000000e+00
	3.300000000000000e+00
	3.300000000000000e+00
	3.300000000000000e+00
	-4.349284075570760e-04

 35	1.712579375826274e-08
	3.300000000000000e+00
	3.300000000000000e+00
	3.300000000000000e+00
	3.300000000000000e+00
	4.072627171874533e-04

 36	1.812579375826274e-08
	3.300000000000000e+00
	3.300000000000000e+00
	3.300000000000000e+00
	3.300000000000000e+00
	-3.797896494414114e-04

 37	1.912579375826274e-08
	3.300000000000000e+00
	3.300000000000000e+00
	3.300000000000000e+00
	3.300000000000000e+00
	3.549931395688544e-04

 38	2.012579375826274e-08
	3.300000000000000e+00
	3.300000000000000e+00
	3.300000000000000e+00
	3.300000000000000e+00
	-3.296368638059919e-04

 39	2.100000000000000e-08
	3.300000000000000e+00
	3.300000000000000e+00
	3.300000000000000e+00
	3.300000000000000e+00
	3.042055342321061e-04

 40	2.110000000000000e-08
	3.300000000000000e+00
	3.300000000000000e+00
	3.300000000000000e+00
	2.969999999999997e+00
	-2.422360719955864e-04

 41	2.130000000000000e-08
	3.300000000000000e+00
	3.300000000000000e+00
	3.300000000000000e+00
	2.310000000000002e+00
	-1.880561231080088e-04

 42	2.157981276467352e-08
	3.300000000000000e+00
	3.300000000000000e+00
	3.300000000000000e+00
	1.386617876577393e+00
	4.136757878234736e-04

 43	2.189346378289264e-08
	3.300000000000000e+00
	3.300000000000000e+00
	3.300000000000000e+00
	3.515695164542989e-01
	-2.143542465062407e-04

 44	2.200000000000000e-08
	3.300000000000000e+00
	3.300000000000000e+00
	3.300000000000000e+00
	0.000000000000000e+00
	-4.762485927324971e-04

 45	2.203742342596404e-08
	3.300000000000000e+00
	3.300000000000000e+00
	3.300000000000000e+00
	0.000000000000000e+00
	3.265184777549550e-04

 46	2.211227027789213e-08
	3.300000000000000e+00
	3.300000000000000e+00
	3.300000000000000e+00
	0.000000000000000e+00
	3.736309790287919e-04

 47	2.226196398174831e-08
	3.300000000000000e+00
	3.300000000000000e+00
	3.300000000000000e+00
	0.000000000000000e+00
	-2.092353717499731e-04

 48	2.256135138946066e-08
	3.300000000000000e+00
	3.300000000000000e+00
	3.300000000000000e+00
	0.000000000000000e+00
	1.710546623790998e-04

 49	2.304784465136355e-08
	3.300000000000000e+00
	3.300000000000000e+00
	3.300000000000000e+00
	0.000000000000000e+00
	-1.507849842875900e-04

 50	2.402083117516932e-08
	3.300000000000000e+00
	3.300000000000000e+00
	3.300000000000000e+00
	0.000000000000000e+00
	1.420373557636267e-04

 51	2.502083117516932e-08
	3.300000000000000e+00
	3.300000000000000e+00
	3.300000000000000e+00
	0.000000000000000e+00
	-1.334996548174937e-04

 52	2.602083117516932e-08
	3.300000000000000e+00
	3.300000000000000e+00
	3.300000000000000e+00
	0.000000000000000e+00
	1.260255821429906e-04

 53	2.702083117516932e-08
	3.300000000000000e+00
	3.300000000000000e+00
	3.300000000000000e+00
	0.000000000000000e+00
	-1.184483475832562e-04

 54	2.802083117516931e-08
	3.300000000000000e+00
	3.300000000000000e+00
	3.300000000000000e+00
	0.000000000000000e+00
	1.118709633820725e-04

 55	2.902083117516931e-08
	3.300000000000000e+00
	3.300000000000000e+00
	3.300000000000000e+00
	0.000000000000000e+00
	-1.051369421697858e-04

 56	3.002083117516932e-08
	3.300000000000000e+00
	3.300000000000000e+00
	3.300000000000000e+00
	0.000000000000000e+00
	9.934748502107025e-05

 57	3.102083117516932e-08
	3.300000000000000e+00
	3.300000000000000e+00
	3.300000000000000e+00
	0.000000000000000e+00
	-9.335485390833632e-05

 58	3.202083117516932e-08
	3.300000000000000e+00
	3.300000000000000e+00
	3.300000000000000e+00
	0.000000000000000e+00
	8.825858665132205e-05

 59	3.302083117516932e-08
	3.300000000000000e+00
	3.300000000000000e+00
	3.300000000000000e+00
	0.000000000000000e+00
	-8.291846247562937e-05

 60	3.402083117516932e-08
	3.300000000000000e+00
	3.300000000000000e+00
	3.300000000000000e+00
	0.000000000000000e+00
	7.843253949251861e-05

 61	3.502083117516933e-08
	3.300000000000000e+00
	3.300000000000000e+00
	3.300000000000000e+00
	0.000000000000000e+00
	-7.366710556158803e-05

 62	3.602083117516933e-08
	3.300000000000000e+00
	3.300000000000000e+00
	3.300000000000000e+00
	0.000000000000000e+00
	6.971892316952203e-05

 63	3.702083117516933e-08
	3.300000000000000e+00
	3.300000000000000e+00
	3.300000000000000e+00
	0.000000000000000e+00
	-6.545994385283825e-05

 64	3.802083117516933e-08
	3.300000000000000e+00
	3.300000000000000e+00
	3.300000000000000e+00
	0.000000000000000e+00
	6.198580319497502e-05

 65	3.900000000000001e-08
	3.300000000000000e+00
	3.300000000000000e+00
	3.300000000000000e+00
	0.000000000000000e+00
	-5.810019787719873e-05

 66	3.910000000000001e-08
	3.300000000000000e+00
	3.300000000000000e+00
	2.969999999999997e+00
	0.000000000000000e+00
	-8.083236212763113e-05

 67	3.930000000000001e-08
	3.300000000000000e+00
	3.300000000000000e+00
	2.309999999999992e+00
	0.000000000000000e+00
	2.204674206545201e-05

 68	3.958610071349997e-08
	3.300000000000000e+00
	3.300000000000000e+00
	1.365867645450116e+00
	0.000000000000000e+00
	-1.737731038822087e-04

 69	3.997665365145629e-08
	3.300000000000000e+00
	3.300000000000000e+00
	7.704295019426466e-02
	0.000000000000000e+00
	-4.315939399895168e-03

 70	4.000000000000001e-08
	3.300000000000000e+00
	3.300000000000000e+00
	0.000000000000000e+00
	0.000000000000000e+00
	-4.058573119428602e-03

 71	4.002439132923197e-08
	3.300000000000000e+00
	3.300000000000000e+00
	0.000000000000000e+00
	0.000000000000000e+00
	-1.960593847857246e-03

 72	4.007317398769589e-08
	3.300000000000000e+00
	3.300000000000000e+00
	0.000000000000000e+00
	0.000000000000000e+00
	1.832305387467897e-03

 73	4.017073930462375e-08
	3.300000000000000e+00
	3.300000000000000e+00
	0.000000000000000e+00
	0.000000000000000e+00
	4.798513550217022e-03

 74	4.036586993847945e-08
	3.300000000000000e+00
	3.300000000000000e+00
	0.000000000000000e+00
	0.000000000000000e+00
	1.256268183402329e-03

 75	4.057537646994398e-08
	3.300000000000000e+00
	3.300000000000000e+00
	0.000000000000000e+00
	0.000000000000000e+00
	-1.724132222389631e-04

 76	4.085382244710967e-08
	3.300000000000000e+00
	3.300000000000000e+00
	0.000000000000000e+00
	0.000000000000000e+00
	2.627480547013703e-04

 77	4.125977895720900e-08
	3.300000000000000e+00
	3.300000000000000e+00
	0.000000000000000e+00
	0.000000000000000e+00
	-1.857629675126159e-04

 78	4.200000000000000e-08
	3.300000000000000e+00
	3.300000000000000e+00
	0.000000000000000e+00
	0.000000000000000e+00
	1.804798313583475e-04

 79	4.208119130201986e-08
	3.300000000000000e+00
	3.300000000000000e+00
	0.000000000000000e+00
	2.679312966655540e-01
	5.059235095633986e-04

 80	4.224357390605959e-08
	3.300000000000000e+00
	3.300000000000000e+00
	0.000000000000000e+00
	8.037938899966619e-01
	-6.089822536158997e-03

 81	4.239336303897146e-08
	3.300000000000000e+00
	3.300000000000000e+00
	0.000000000000000e+00
	1.298098028605836e+00
	-5.841303304414958e-04

 82	4.258085662048074e-08
	3.300000000000000e+00
	3.300000000000000e+00
	0.000000000000000e+00
	1.916826847586447e+00
	2.452026688545684e+00

 83	4.271516549252564e-08
	3.300000000000000e+00
	3.300000000000000e+00
	0.000000000000000e+00
	2.360046125334625e+00
	3.485165085963605e+00

 84	4.286230449403976e-08
	3.300000000000000e+00
	3.300000000000000e+00
	0.000000000000000e+00
	2.845604830331222e+00
	3.197021857562424e+00

 85	4.300000000000000e-08
	3.300000000000000e+00
	3.300000000000000e+00
	0.000000000000000e+00
	3.300000000000000e+00
	3.352924305237185e+00

 86	4.301670547348878e-08
	3.300000000000000e+00
	3.300000000000000e+00
	0.000000000000000e+00
	3.300000000000000e+00
	3.327988107853332e+00

 87	4.305011642046634e-08
	3.300000000000000e+00
	3.300000000000000e+00
	0.000000000000000e+00
	3.300000000000000e+00
	3.302002808612625e+00

 88	4.311693831442147e-08
	3.300000000000000e+00
	3.300000000000000e+00
	0.000000000000000e+00
	3.300000000000000e+00
	3.299725436814975e+00

 89	4.325058210233172e-08
	3.300000000000000e+00
	3.300000000000000e+00
	0.000000000000000e+00
	3.300000000000000e+00
	3.300071194020585e+00

 90	4.351786967815223e-08
	3.300000000000000e+00
	3.300000000000000e+00
	0.000000000000000e+00
	3.300000000000000e+00
	3.299959465345202e+00

 91	4.405244482979324e-08
	3.300000000000000e+00
	3.300000000000000e+00
	0.000000000000000e+00
	3.300000000000000e+00
	3.300024490206651e+00

 92	4.505244482979324e-08
	3.300000000000000e+00
	3.300000000000000e+00
	0.000000000000000e+00
	3.300000000000000e+00
	3.299982724070142e+00

 93	4.605244482979324e-08
	3.300000000000000e+00
	3.300000000000000e+00
	0.000000000000000e+00
	3.300000000000000e+00
	3.300010164342473e+00

 94	4.705244482979325e-08
	3.300000000000000e+00
	3.300000000000000e+00
	0.000000000000000e+00
	3.300000000000000e+00
	3.299995767688805e+00

 95	4.805244482979325e-08
	3.300000000000000e+00
	3.300000000000000e+00
	0.000000000000000e+00
	3.300000000000000e+00
	3.299998289957800e+00

 96	4.905244482979325e-08
	3.300000000000000e+00
	3.300000000000000e+00
	0.000000000000000e+00
	3.300000000000000e+00
	3.300006538212172e+00

 97	5.005244482979325e-08
	3.300000000000000e+00
	3.300000000000000e+00
	0.000000000000000e+00
	3.300000000000000e+00
	3.299988548214931e+00

 98	5.105244482979325e-08
	3.300000000000000e+00
	3.300000000000000e+00
	0.000000000000000e+00
	3.300000000000000e+00
	3.300015321792233e+00

 99	5.205244482979326e-08
	3.300000000000000e+00
	3.300000000000000e+00
	0.000000000000000e+00
	3.300000000000000e+00
	3.299980639677432e+00

 100	5.305244482979326e-08
	3.300000000000000e+00
	3.300000000000000e+00
	0.000000000000000e+00
	3.300000000000000e+00
	3.300022415553492e+00

 101	5.405244482979326e-08
	3.300000000000000e+00
	3.300000000000000e+00
	0.000000000000000e+00
	3.300000000000000e+00
	3.299974289579699e+00

 102	5.505244482979326e-08
	3.300000000000000e+00
	3.300000000000000e+00
	0.000000000000000e+00
	3.300000000000000e+00
	3.300028076921373e+00

 103	5.605244482979327e-08
	3.300000000000000e+00
	3.300000000000000e+00
	0.000000000000000e+00
	3.300000000000000e+00
	3.299969256259977e+00

 104	5.705244482979327e-08
	3.300000000000000e+00
	3.300000000000000e+00
	0.000000000000000e+00
	3.300000000000000e+00
	3.300032530654928e+00

 105	5.805244482979327e-08
	3.300000000000000e+00
	3.300000000000000e+00
	0.000000000000000e+00
	3.300000000000000e+00
	3.299965330477276e+00

 106	5.905244482979327e-08
	3.300000000000000e+00
	3.300000000000000e+00
	0.000000000000000e+00
	3.300000000000000e+00
	3.300035970558183e+00

 107	6.005244482979327e-08
	3.300000000000000e+00
	3.300000000000000e+00
	0.000000000000000e+00
	3.300000000000000e+00
	3.299962332590248e+00

 108	6.100000000000000e-08
	3.300000000000000e+00
	3.300000000000000e+00
	0.000000000000000e+00
	3.299999999999989e+00
	3.300038624038827e+00

 109	6.110000000000000e-08
	3.300000000000000e+00
	3.300000000000000e+00
	0.000000000000000e+00
	2.970000000000008e+00
	3.299803761354747e+00

 110	6.130000000000000e-08
	3.300000000000000e+00
	3.300000000000000e+00
	0.000000000000000e+00
	2.310000000000002e+00
	3.302604499062857e+00

 111	6.157986953123966e-08
	3.300000000000000e+00
	3.300000000000000e+00
	0.000000000000000e+00
	1.386430546909114e+00
	3.306516539134787e+00

 112	6.187835463102965e-08
	3.300000000000000e+00
	3.300000000000000e+00
	0.000000000000000e+00
	4.014297176021682e-01
	4.721342182329634e-01

 113	6.200000000000000e-08
	3.300000000000000e+00
	3.300000000000000e+00
	0.000000000000000e+00
	2.531308496145357e-14
	3.411316472302212e-03

 114	6.202814515899494e-08
	3.300000000000000e+00
	3.300000000000000e+00
	0.000000000000000e+00
	0.000000000000000e+00
	2.421041550207079e-02

 115	6.208443547698481e-08
	3.300000000000000e+00
	3.300000000000000e+00
	0.000000000000000e+00
	0.000000000000000e+00
	1.629725702948156e-02

 116	6.219701611296457e-08
	3.300000000000000e+00
	3.300000000000000e+00
	0.000000000000000e+00
	0.000000000000000e+00
	-3.843841649006294e-03

 117	6.242217738492407e-08
	3.300000000000000e+00
	3.300000000000000e+00
	0.000000000000000e+00
	0.000000000000000e+00
	2.845474986020296e-03

 118	6.266284372087788e-08
	3.300000000000000e+00
	3.300000000000000e+00
	0.000000000000000e+00
	0.000000000000000e+00
	-2.227545264115885e-03

 119	6.314417639278550e-08
	3.300000000000000e+00
	3.300000000000000e+00
	0.000000000000000e+00
	0.000000000000000e+00
	2.016564573957159e-03

 120	6.401776464331789e-08
	3.300000000000000e+00
	3.300000000000000e+00
	0.000000000000000e+00
	0.000000000000000e+00
	-1.916476176509919e-03

 121	6.501776464331788e-08
	3.300000000000000e+00
	3.300000000000000e+00
	0.000000000000000e+00
	0.000000000000000e+00
	1.837952607836688e-03

 122	6.601776464331788e-08
	3.300000000000000e+00
	3.300000000000000e+00
	0.000000000000000e+00
	0.000000000000000e+00
	-1.765034301950668e-03

 123	6.701776464331787e-08
	3.300000000000000e+00
	3.300000000000000e+00
	0.000000000000000e+00
	0.000000000000000e+00
	1.698814177691672e-03

 124	6.801776464331787e-08
	3.300000000000000e+00
	3.300000000000000e+00
	0.000000000000000e+00
	0.000000000000000e+00
	-1.636698466794676e-03

 125	6.901776464331786e-08
	3.300000000000000e+00
	3.300000000000000e+00
	0.000000000000000e+00
	0.000000000000000e+00
	1.580035856817359e-03

 126	7.001776464331786e-08
	3.300000000000000e+00
	3.300000000000000e+00
	0.000000000000000e+00
	0.000000000000000e+00
	-1.526462777023627e-03

 127	7.101776464331786e-08
	3.300000000000000e+00
	3.300000000000000e+00
	0.000000000000000e+00
	0.000000000000000e+00
	1.477384346743006e-03

 128	7.201776464331785e-08
	3.300000000000000e+00
	3.300000000000000e+00
	0.000000000000000e+00
	0.000000000000000e+00
	-1.430618244167260e-03

 129	7.301776464331785e-08
	3.300000000000000e+00
	3.300000000000000e+00
	0.000000000000000e+00
	0.000000000000000e+00
	1.387632430546130e-03

 130	7.401776464331784e-08
	3.300000000000000e+00
	3.300000000000000e+00
	0.000000000000000e+00
	0.000000000000000e+00
	-1.346384181060918e-03

 131	7.500000000000001e-08
	3.300000000000000e+00
	3.300000000000000e+00
	0.000000000000000e+00
	0.000000000000000e+00
	1.307692238910787e-03

 132	7.510000000000000e-08
	3.300000000000000e+00
	2.970000000000019e+00
	0.000000000000000e+00
	0.000000000000000e+00
	-1.364098969069971e-04

 133	7.530000000000001e-08
	3.300000000000000e+00
	2.310000000000013e+00
	0.000000000000000e+00
	0.000000000000000e+00
	-1.921307820399575e-04

 134	7.558393789505688e-08
	3.300000000000000e+00
	1.373004946312340e+00
	0.000000000000000e+00
	0.000000000000000e+00
	5.482649961740735e-05

 135	7.596245893595360e-08
	3.300000000000000e+00
	1.238855113531465e-01
	0.000000000000000e+00
	0.000000000000000e+00
	-1.144849772026973e-03

 136	7.600000000000001e-08
	3.300000000000000e+00
	0.000000000000000e+00
	0.000000000000000e+00
	0.000000000000000e+00
	-4.392556409807472e-04

 137	7.601870181786006e-08
	3.300000000000000e+00
	0.000000000000000e+00
	0.000000000000000e+00
	0.000000000000000e+00
	5.606410253393909e-04

 138	7.605610545358017e-08
	3.300000000000000e+00
	0.000000000000000e+00
	0.000000000000000e+00
	0.000000000000000e+00
	1.505389446792668e-03

 139	7.613091272502041e-08
	3.300000000000000e+00
	0.000000000000000e+00
	0.000000000000000e+00
	0.000000000000000e+00
	1.344142118735566e-03

 140	7.628052726790088e-08
	3.300000000000000e+00
	0.000000000000000e+00
	0.000000000000000e+00
	0.000000000000000e+00
	2.705150423329833e-04

 141	7.646762164993389e-08
	3.300000000000000e+00
	0.000000000000000e+00
	0.000000000000000e+00
	0.000000000000000e+00
	5.361193144573853e-06

 142	7.672672030205997e-08
	3.300000000000000e+00
	0.000000000000000e+00
	0.000000000000000e+00
	0.000000000000000e+00
	4.969462392305155e-05

 143	7.710457686566579e-08
	3.300000000000000e+00
	0.000000000000000e+00
	0.000000000000000e+00
	0.000000000000000e+00
	-3.941422240634138e-05

 144	7.786028999287744e-08
	3.300000000000000e+00
	0.000000000000000e+00
	0.000000000000000e+00
	0.000000000000000e+00
	4.299674176995840e-05

 145	7.886028999287743e-08
	3.300000000000000e+00
	0.000000000000000e+00
	0.000000000000000e+00
	0.000000000000000e+00
	-4.100319049579445e-05

 146	7.986028999287743e-08
	3.300000000000000e+00
	0.000000000000000e+00
	0.000000000000000e+00
	0.000000000000000e+00
	4.121899675524733e-05

 147	8.086028999287742e-08
	3.300000000000000e+00
	0.000000000000000e+00
	0.000000000000000e+00
	0.000000000000000e+00
	-3.980408460116944e-05

 148	8.186028999287742e-08
	3.300000000000000e+00
	0.000000000000000e+00
	0.000000000000000e+00
	0.000000000000000e+00
	3.939343015294059e-05

 149	8.199999999999999e-08
	3.300000000000000e+00
	0.000000000000000e+00
	0.000000000000000e+00
	0.000000000000000e+00
	-3.105827023571622e-05

 150	8.206064472968056e-08
	3.300000000000000e+00
	0.000000000000000e+00
	2.001276079458190e-01
	2.001276079458190e-01
	6.276968121406400e-04

 151	8.218193418904169e-08
	3.300000000000000e+00
	0.000000000000000e+00
	6.003828238375444e-01
	6.003828238375444e-01
	-7.909398716481400e-05

 152	8.242451310776394e-08
	3.300000000000000e+00
	0.000000000000000e+00
	1.400893255620995e+00
	1.400893255620995e+00
	-1.254343277873026e-02

 153	8.263582986376804e-08
	3.300000000000000e+00
	0.000000000000000e+00
	2.098238550434522e+00
	2.098238550434522e+00
	8.883383847862797e-01

 154	8.280547504088526e-08
	3.300000000000000e+00
	0.000000000000000e+00
	2.658067634921325e+00
	2.658067634921325e+00
	2.899864021550867e+00

 155	8.297646759247218e-08
	3.300000000000000e+00
	0.000000000000000e+00
	3.222343055158167e+00
	3.222343055158167e+00
	3.464367382577504e+00

 156	8.300000000000000e-08
	3.300000000000000e+00
	0.000000000000000e+00
	3.299999999999986e+00
	3.299999999999986e+00
	3.344910008064472e+00

 157	8.301683551081017e-08
	3.300000000000000e+00
	0.000000000000000e+00
	3.300000000000000e+00
	3.300000000000000e+00
	3.324786653914998e+00

 158	8.305050653243051e-08
	3.300000000000000e+00
	0.000000000000000e+00
	3.300000000000000e+00
	3.300000000000000e+00
	3.302229410912656e+00

 159	8.311784857567121e-08
	3.300000000000000e+00
	0.000000000000000e+00
	3.300000000000000e+00
	3.300000000000000e+00
	3.299268742394463e+00

 160	8.325253266215260e-08
	3.300000000000000e+00
	0.000000000000000e+00
	3.300000000000000e+00
	3.300000000000000e+00
	3.300322262922206e+00

 161	8.352190083511536e-08
	3.300000000000000e+00
	0.000000000000000e+00
	3.300000000000000e+00
	3.300000000000000e+00
	3.299762807154107e+00

 162	8.406063718104090e-08
	3.300000000000000e+00
	0.000000000000000e+00
	3.300000000000000e+00
	3.300000000000000e+00
	3.300204717096473e+00

 163	8.506063718104089e-08
	3.300000000000000e+00
	0.000000000000000e+00
	3.300000000000000e+00
	3.300000000000000e+00
	3.299810741549778e+00

 164	8.606063718104089e-08
	3.300000000000000e+00
	0.000000000000000e+00
	3.300000000000000e+00
	3.300000000000000e+00
	3.300175179933980e+00

 165	8.706063718104089e-08
	3.300000000000000e+00
	0.000000000000000e+00
	3.300000000000000e+00
	3.300000000000000e+00
	3.299837430825856e+00

 166	8.806063718104088e-08
	3.300000000000000e+00
	0.000000000000000e+00
	3.300000000000000e+00
	3.300000000000000e+00
	3.300150914402565e+00

 167	8.906063718104088e-08
	3.300000000000000e+00
	0.000000000000000e+00
	3.300000000000000e+00
	3.300000000000000e+00
	3.299859440635264e+00

 168	9.006063718104087e-08
	3.300000000000000e+00
	0.000000000000000e+00
	3.300000000000000e+00
	3.300000000000000e+00
	3.300130927877585e+00

 169	9.106063718104087e-08
	3.300000000000000e+00
	0.000000000000000e+00
	3.300000000000000e+00
	3.300000000000000e+00
	3.299877581085672e+00

 170	9.206063718104086e-08
	3.300000000000000e+00
	0.000000000000000e+00
	3.300000000000000e+00
	3.300000000000000e+00
	3.300114453905922e+00

 171	9.306063718104086e-08
	3.300000000000000e+00
	0.000000000000000e+00
	3.300000000000000e+00
	3.300000000000000e+00
	3.299892542390059e+00

 172	9.406063718104086e-08
	3.300000000000000e+00
	0.000000000000000e+00
	3.300000000000000e+00
	3.300000000000000e+00
	3.300100860703078e+00

 173	9.506063718104085e-08
	3.300000000000000e+00
	0.000000000000000e+00
	3.300000000000000e+00
	3.300000000000000e+00
	3.299904896224257e+00

 174	9.606063718104085e-08
	3.300000000000000e+00
	0.000000000000000e+00
	3.300000000000000e+00
	3.300000000000000e+00
	3.300089628839283e+00

 175	9.706063718104084e-08
	3.300000000000000e+00
	0.000000000000000e+00
	3.300000000000000e+00
	3.300000000000000e+00
	3.299915112569366e+00

 176	9.806063718104084e-08
	3.300000000000000e+00
	0.000000000000000e+00
	3.300000000000000e+00
	3.300000000000000e+00
	3.300080332224798e+00

 177	9.906063718104083e-08
	3.300000000000000e+00
	0.000000000000000e+00
	3.300000000000000e+00
	3.300000000000000e+00
	3.299923577079454e+00

 178	1.000606371810408e-07
	3.300000000000000e+00
	0.000000000000000e+00
	3.300000000000000e+00
	3.300000000000000e+00
	3.300072621651209e+00

 179	1.010000000000000e-07
	3.300000000000000e+00
	0.000000000000000e+00
	3.300000000000000e+00
	3.300000000000000e+00
	3.299930811600481e+00

 180	1.011000000000000e-07
	3.300000000000000e+00
	0.000000000000000e+00
	3.300000000000000e+00
	2.970000000000030e+00
	3.299846631416520e+00

 181	1.013000000000000e-07
	3.300000000000000e+00
	0.000000000000000e+00
	3.300000000000000e+00
	2.310000000000024e+00
	3.301178492004021e+00

 182	1.015806010861296e-07
	3.300000000000000e+00
	0.000000000000000e+00
	3.300000000000000e+00
	1.384016415772425e+00
	3.303956933452384e+00

 183	1.018851211177330e-07
	3.300000000000000e+00
	0.000000000000000e+00
	3.300000000000000e+00
	3.791003114811979e-01
	5.970106563235519e-01

 184	1.020000000000000e-07
	3.300000000000000e+00
	0.000000000000000e+00
	3.300000000000000e+00
	2.531308496145357e-14
	-2.791400748930089e-02

 185	1.020276621269235e-07
	3.300000000000000e+00
	0.000000000000000e+00
	3.300000000000000e+00
	0.000000000000000e+00
	4.949801470301968e-03

 186	1.020829863807704e-07
	3.300000000000000e+00
	0.000000000000000e+00
	3.300000000000000e+00
	0.000000000000000e+00
	1.449632512420236e-02

 187	1.021936348884642e-07
	3.300000000000000e+00
	0.000000000000000e+00
	3.300000000000000e+00
	0.000000000000000e+00
	-3.172702327881305e-03

 188	1.024149319038519e-07
	3.300000000000000e+00
	0.000000000000000e+00
	3.300000000000000e+00
	0.000000000000000e+00
	2.300783815760253e-03

 189	1.026453554720922e-07
	3.300000000000000e+00
	0.000000000000000e+00
	3.300000000000000e+00
	0.000000000000000e+00
	-1.827917307816954e-03

 190	1.031062026085728e-07
	3.300000000000000e+00
	0.000000000000000e+00
	3.300000000000000e+00
	0.000000000000000e+00
	1.674134439165710e-03

 191	1.040278968815339e-07
	3.300000000000000e+00
	0.000000000000000e+00
	3.300000000000000e+00
	0.000000000000000e+00
	-1.603508672184767e-03

 192	1.050278968815339e-07
	3.300000000000000e+00
	0.000000000000000e+00
	3.300000000000000e+00
	0.000000000000000e+00
	1.547889185705263e-03

 193	1.060278968815339e-07
	3.300000000000000e+00
	0.000000000000000e+00
	3.300000000000000e+00
	0.000000000000000e+00
	-1.494345184821928e-03

 194	1.070278968815339e-07
	3.300000000000000e+00
	0.000000000000000e+00
	3.300000000000000e+00
	0.000000000000000e+00
	1.446448184174476e-03

 195	1.080278968815339e-07
	3.300000000000000e+00
	0.000000000000000e+00
	3.300000000000000e+00
	0.000000000000000e+00
	-1.400625805119388e-03

 196	1.090278968815339e-07
	3.300000000000000e+00
	0.000000000000000e+00
	3.300000000000000e+00
	0.000000000000000e+00
	1.359038640811202e-03

 197	1.100278968815339e-07
	3.300000000000000e+00
	0.000000000000000e+00
	3.300000000000000e+00
	0.000000000000000e+00
	-1.319072962988857e-03

 198	1.110278968815339e-07
	3.300000000000000e+00
	0.000000000000000e+00
	3.300000000000000e+00
	0.000000000000000e+00
	1.282482791788170e-03

 199	1.120278968815339e-07
	3.300000000000000e+00
	0.000000000000000e+00
	3.300000000000000e+00
	0.000000000000000e+00
	-1.247126538628747e-03

 200	1.130278968815339e-07
	3.300000000000000e+00
	0.000000000000000e+00
	3.300000000000000e+00
	0.000000000000000e+00
	1.214559851475608e-03

 201	1.140278968815339e-07
	3.300000000000000e+00
	0.000000000000000e+00
	3.300000000000000e+00
	0.000000000000000e+00
	-1.182886803384552e-03

 202	1.150278968815339e-07
	3.300000000000000e+00
	0.000000000000000e+00
	3.300000000000000e+00
	0.000000000000000e+00
	1.153597379896602e-03

 203	1.160278968815339e-07
	3.300000000000000e+00
	0.000000000000000e+00
	3.300000000000000e+00
	0.000000000000000e+00
	-1.124939359432132e-03

 204	1.170278968815339e-07
	3.300000000000000e+00
	0.000000000000000e+00
	3.300000000000000e+00
	0.000000000000000e+00
	1.098364580815665e-03

 205	1.180278968815339e-07
	3.300000000000000e+00
	0.000000000000000e+00
	3.300000000000000e+00
	0.000000000000000e+00
	-1.072220191038956e-03

 206	1.190000000000000e-07
	3.300000000000000e+00
	0.000000000000000e+00
	3.300000000000000e+00
	0.000000000000000e+00
	1.047241607190963e-03

 207	1.191000000000000e-07
	3.300000000000000e+00
	0.000000000000000e+00
	2.970000000000041e+00
	0.000000000000000e+00
	-4.799146795399223e-05

 208	1.193000000000000e-07