Title: * spice3 file created from seg_a.ext - technology: tsmc
Date: Wed Apr 26 16:53:12  2017
Plotname: Transient Analysis
Flags: real
No. Variables: 6
No. Points: 547
Variables:
	0	time	time
	1	a	voltage
	2	b	voltage
	3	c	voltage
	4	d	voltage
	5	y	voltage
Values:
 0	0.000000000000000e+00
	0.000000000000000e+00
	0.000000000000000e+00
	0.000000000000000e+00
	0.000000000000000e+00
	1.049892314039052e-07

 1	1.000000000000000e-11
	0.000000000000000e+00
	0.000000000000000e+00
	0.000000000000000e+00
	0.000000000000000e+00
	1.049888953275069e-07

 2	2.000000000000000e-11
	0.000000000000000e+00
	0.000000000000000e+00
	0.000000000000000e+00
	0.000000000000000e+00
	1.049887840276487e-07

 3	4.000000000000000e-11
	0.000000000000000e+00
	0.000000000000000e+00
	0.000000000000000e+00
	0.000000000000000e+00
	1.049887802528904e-07

 4	8.000000000000001e-11
	0.000000000000000e+00
	0.000000000000000e+00
	0.000000000000000e+00
	0.000000000000000e+00
	1.049888078141770e-07

 5	1.600000000000000e-10
	0.000000000000000e+00
	0.000000000000000e+00
	0.000000000000000e+00
	0.000000000000000e+00
	1.049891789339785e-07

 6	3.200000000000000e-10
	0.000000000000000e+00
	0.000000000000000e+00
	0.000000000000000e+00
	0.000000000000000e+00
	1.049894788746064e-07

 7	6.400000000000001e-10
	0.000000000000000e+00
	0.000000000000000e+00
	0.000000000000000e+00
	0.000000000000000e+00
	1.049890283912058e-07

 8	1.280000000000000e-09
	0.000000000000000e+00
	0.000000000000000e+00
	0.000000000000000e+00
	0.000000000000000e+00
	1.049893884642883e-07

 9	2.000000000000000e-09
	0.000000000000000e+00
	0.000000000000000e+00
	0.000000000000000e+00
	0.000000000000000e+00
	1.049890527692748e-07

 10	2.100000000000000e-09
	3.300000000000002e-01
	3.300000000000002e-01
	3.300000000000002e-01
	3.300000000000002e-01
	5.107735860214457e-04

 11	2.300000000000000e-09
	9.900000000000007e-01
	9.900000000000007e-01
	9.900000000000007e-01
	9.900000000000007e-01
	-2.287335596287843e-02

 12	2.505545289011445e-09
	1.668299453737767e+00
	1.668299453737767e+00
	1.668299453737767e+00
	1.668299453737767e+00
	1.721132810142112e-01

 13	2.713276478244208e-09
	2.353812378205885e+00
	2.353812378205885e+00
	2.353812378205885e+00
	2.353812378205885e+00
	1.505043738878104e-01

 14	2.921015872686857e-09
	3.039352379866628e+00
	3.039352379866628e+00
	3.039352379866628e+00
	3.039352379866628e+00
	-8.217326726313212e-02

 15	3.000000000000000e-09
	3.300000000000000e+00
	3.300000000000000e+00
	3.300000000000000e+00
	3.300000000000000e+00
	4.216280125686617e-04

 16	3.022492625010868e-09
	3.300000000000000e+00
	3.300000000000000e+00
	3.300000000000000e+00
	3.300000000000000e+00
	4.850697838785473e-03

 17	3.067477875032603e-09
	3.300000000000000e+00
	3.300000000000000e+00
	3.300000000000000e+00
	3.300000000000000e+00
	3.817764308712640e-03

 18	3.157448375076074e-09
	3.300000000000000e+00
	3.300000000000000e+00
	3.300000000000000e+00
	3.300000000000000e+00
	-1.916010898924042e-03

 19	3.337389375163016e-09
	3.300000000000000e+00
	3.300000000000000e+00
	3.300000000000000e+00
	3.300000000000000e+00
	1.405054352802720e-03

 20	3.697271375336899e-09
	3.300000000000000e+00
	3.300000000000000e+00
	3.300000000000000e+00
	3.300000000000000e+00
	-1.205315274571815e-03

 21	4.417035375684666e-09
	3.300000000000000e+00
	3.300000000000000e+00
	3.300000000000000e+00
	3.300000000000000e+00
	1.117623355472303e-03

 22	5.417035375684666e-09
	3.300000000000000e+00
	3.300000000000000e+00
	3.300000000000000e+00
	3.300000000000000e+00
	-1.058184872743626e-03

 23	6.417035375684665e-09
	3.300000000000000e+00
	3.300000000000000e+00
	3.300000000000000e+00
	3.300000000000000e+00
	1.002532059526891e-03

 24	7.417035375684665e-09
	3.300000000000000e+00
	3.300000000000000e+00
	3.300000000000000e+00
	3.300000000000000e+00
	-9.506039204411430e-04

 25	8.417035375684665e-09
	3.300000000000000e+00
	3.300000000000000e+00
	3.300000000000000e+00
	3.300000000000000e+00
	8.996526801943790e-04

 26	9.417035375684666e-09
	3.300000000000000e+00
	3.300000000000000e+00
	3.300000000000000e+00
	3.300000000000000e+00
	-8.530366569381650e-04

 27	1.041703537568467e-08
	3.300000000000000e+00
	3.300000000000000e+00
	3.300000000000000e+00
	3.300000000000000e+00
	8.076315398489273e-04

 28	1.141703537568467e-08
	3.300000000000000e+00
	3.300000000000000e+00
	3.300000000000000e+00
	3.300000000000000e+00
	-7.657560042940281e-04

 29	1.241703537568467e-08
	3.300000000000000e+00
	3.300000000000000e+00
	3.300000000000000e+00
	3.300000000000000e+00
	7.252364181482666e-04

 30	1.341703537568467e-08
	3.300000000000000e+00
	3.300000000000000e+00
	3.300000000000000e+00
	3.300000000000000e+00
	-6.875966058935701e-04

 31	1.441703537568467e-08
	3.300000000000000e+00
	3.300000000000000e+00
	3.300000000000000e+00
	3.300000000000000e+00
	6.513866110133670e-04

 32	1.541703537568467e-08
	3.300000000000000e+00
	3.300000000000000e+00
	3.300000000000000e+00
	3.300000000000000e+00
	-6.175342934135342e-04

 33	1.641703537568467e-08
	3.300000000000000e+00
	3.300000000000000e+00
	3.300000000000000e+00
	3.300000000000000e+00
	5.851327857067014e-04

 34	1.741703537568467e-08
	3.300000000000000e+00
	3.300000000000000e+00
	3.300000000000000e+00
	3.300000000000000e+00
	-5.546696298302858e-04

 35	1.841703537568467e-08
	3.300000000000000e+00
	3.300000000000000e+00
	3.300000000000000e+00
	3.300000000000000e+00
	5.256396256380861e-04

 36	1.941703537568466e-08
	3.300000000000000e+00
	3.300000000000000e+00
	3.300000000000000e+00
	3.300000000000000e+00
	-4.982113710870692e-04

 37	2.041703537568466e-08
	3.300000000000000e+00
	3.300000000000000e+00
	3.300000000000000e+00
	3.300000000000000e+00
	4.735368733469244e-04

 38	2.100000000000000e-08
	3.300000000000000e+00
	3.300000000000000e+00
	3.300000000000000e+00
	3.300000000000000e+00
	-4.301611848039899e-04

 39	2.110000000000000e-08
	3.300000000000000e+00
	3.300000000000000e+00
	3.300000000000000e+00
	2.969999999999997e+00
	-1.441992368352990e-04

 40	2.130000000000000e-08
	3.300000000000000e+00
	3.300000000000000e+00
	3.300000000000000e+00
	2.310000000000002e+00
	3.645332984671124e-06

 41	2.170000000000000e-08
	3.300000000000000e+00
	3.300000000000000e+00
	3.300000000000000e+00
	9.900000000000015e-01
	4.773814250082914e-05

 42	2.200000000000000e-08
	3.300000000000000e+00
	3.300000000000000e+00
	3.300000000000000e+00
	0.000000000000000e+00
	-6.481001888385823e-05

 43	2.207283984230961e-08
	3.300000000000000e+00
	3.300000000000000e+00
	3.300000000000000e+00
	0.000000000000000e+00
	1.453878951461346e-04

 44	2.221851952692882e-08
	3.300000000000000e+00
	3.300000000000000e+00
	3.300000000000000e+00
	0.000000000000000e+00
	-4.787968215814314e-05

 45	2.250987889616724e-08
	3.300000000000000e+00
	3.300000000000000e+00
	3.300000000000000e+00
	0.000000000000000e+00
	1.992128122176723e-05

 46	2.309259763464408e-08
	3.300000000000000e+00
	3.300000000000000e+00
	3.300000000000000e+00
	0.000000000000000e+00
	-8.970515615318309e-06

 47	2.409259763464408e-08
	3.300000000000000e+00
	3.300000000000000e+00
	3.300000000000000e+00
	0.000000000000000e+00
	3.833289769133996e-06

 48	2.509259763464408e-08
	3.300000000000000e+00
	3.300000000000000e+00
	3.300000000000000e+00
	0.000000000000000e+00
	1.402459933914912e-06

 49	2.609259763464408e-08
	3.300000000000000e+00
	3.300000000000000e+00
	3.300000000000000e+00
	0.000000000000000e+00
	-5.421695135130258e-06

 50	2.709259763464408e-08
	3.300000000000000e+00
	3.300000000000000e+00
	3.300000000000000e+00
	0.000000000000000e+00
	9.670130676986410e-06

 51	2.809259763464408e-08
	3.300000000000000e+00
	3.300000000000000e+00
	3.300000000000000e+00
	0.000000000000000e+00
	-1.280253873591972e-05

 52	2.909259763464408e-08
	3.300000000000000e+00
	3.300000000000000e+00
	3.300000000000000e+00
	0.000000000000000e+00
	1.623585827359962e-05

 53	3.009259763464408e-08
	3.300000000000000e+00
	3.300000000000000e+00
	3.300000000000000e+00
	0.000000000000000e+00
	-1.862557216819084e-05

 54	3.109259763464408e-08
	3.300000000000000e+00
	3.300000000000000e+00
	3.300000000000000e+00
	0.000000000000000e+00
	2.137540299502853e-05

 55	3.209259763464408e-08
	3.300000000000000e+00
	3.300000000000000e+00
	3.300000000000000e+00
	0.000000000000000e+00
	-2.314482240587702e-05

 56	3.309259763464409e-08
	3.300000000000000e+00
	3.300000000000000e+00
	3.300000000000000e+00
	0.000000000000000e+00
	2.532306235763712e-05

 57	3.409259763464409e-08
	3.300000000000000e+00
	3.300000000000000e+00
	3.300000000000000e+00
	0.000000000000000e+00
	-2.657099412846711e-05

 58	3.509259763464409e-08
	3.300000000000000e+00
	3.300000000000000e+00
	3.300000000000000e+00
	0.000000000000000e+00
	2.828149986982068e-05

 59	3.609259763464409e-08
	3.300000000000000e+00
	3.300000000000000e+00
	3.300000000000000e+00
	0.000000000000000e+00
	-2.909219310650787e-05

 60	3.709259763464410e-08
	3.300000000000000e+00
	3.300000000000000e+00
	3.300000000000000e+00
	0.000000000000000e+00
	3.041158782698603e-05

 61	3.809259763464410e-08
	3.300000000000000e+00
	3.300000000000000e+00
	3.300000000000000e+00
	0.000000000000000e+00
	-3.086226791432049e-05

 62	3.900000000000001e-08
	3.300000000000000e+00
	3.300000000000000e+00
	3.300000000000000e+00
	0.000000000000000e+00
	3.184814745587142e-05

 63	3.910000000000001e-08
	3.300000000000000e+00
	3.300000000000000e+00
	2.969999999999997e+00
	0.000000000000000e+00
	-2.610223964250036e-06

 64	3.930000000000001e-08
	3.300000000000000e+00
	3.300000000000000e+00
	2.309999999999992e+00
	0.000000000000000e+00
	3.917189009491895e-05

 65	3.958171738429638e-08
	3.300000000000000e+00
	3.300000000000000e+00
	1.380332631821956e+00
	0.000000000000000e+00
	1.440853158111849e-04

 66	3.994349325582792e-08
	3.300000000000000e+00
	3.300000000000000e+00
	1.864722557678729e-01
	0.000000000000000e+00
	2.841342354528084e-04

 67	4.000000000000001e-08
	3.300000000000000e+00
	3.300000000000000e+00
	0.000000000000000e+00
	0.000000000000000e+00
	-1.532179714692009e-03

 68	4.002463404456781e-08
	3.300000000000000e+00
	3.300000000000000e+00
	0.000000000000000e+00
	0.000000000000000e+00
	-9.772188702837359e-04

 69	4.007390213370344e-08
	3.300000000000000e+00
	3.300000000000000e+00
	0.000000000000000e+00
	0.000000000000000e+00
	-2.481216053158153e-04

 70	4.017243831197467e-08
	3.300000000000000e+00
	3.300000000000000e+00
	0.000000000000000e+00
	0.000000000000000e+00
	-3.534079522342359e-05

 71	4.036951066851715e-08
	3.300000000000000e+00
	3.300000000000000e+00
	0.000000000000000e+00
	0.000000000000000e+00
	-3.597563265629600e-06

 72	4.062764927407529e-08
	3.300000000000000e+00
	3.300000000000000e+00
	0.000000000000000e+00
	0.000000000000000e+00
	1.062971608202512e-05

 73	4.114199431956159e-08
	3.300000000000000e+00
	3.300000000000000e+00
	0.000000000000000e+00
	0.000000000000000e+00
	-1.158545264865612e-05

 74	4.200000000000000e-08
	3.300000000000000e+00
	3.300000000000000e+00
	0.000000000000000e+00
	0.000000000000000e+00
	1.215860254074122e-05

 75	4.210000000000000e-08
	3.300000000000000e+00
	3.300000000000000e+00
	0.000000000000000e+00
	3.300000000000030e-01
	1.387033550917446e-04

 76	4.230000000000000e-08
	3.300000000000000e+00
	3.300000000000000e+00
	0.000000000000000e+00
	9.900000000000089e-01
	-1.031010751392503e-04

 77	4.247878448607800e-08
	3.300000000000000e+00
	3.300000000000000e+00
	0.000000000000000e+00
	1.579988804057402e+00
	1.848733260241611e-04

 78	4.268859887047316e-08
	3.300000000000000e+00
	3.300000000000000e+00
	0.000000000000000e+00
	2.272376272561426e+00
	-2.223072088350722e-04

 79	4.300000000000000e-08
	3.300000000000000e+00
	3.300000000000000e+00
	0.000000000000000e+00
	3.300000000000000e+00
	2.536126026565569e-04

 80	4.304196287687903e-08
	3.300000000000000e+00
	3.300000000000000e+00
	0.000000000000000e+00
	3.300000000000000e+00
	-2.389833637132244e-04

 81	4.312588863063710e-08
	3.300000000000000e+00
	3.300000000000000e+00
	0.000000000000000e+00
	3.300000000000000e+00
	-1.457364218438589e-04

 82	4.329374013815322e-08
	3.300000000000000e+00
	3.300000000000000e+00
	0.000000000000000e+00
	3.300000000000000e+00
	1.445927591061172e-04

 83	4.362944315318547e-08
	3.300000000000000e+00
	3.300000000000000e+00
	0.000000000000000e+00
	3.300000000000000e+00
	-1.357503101054730e-04

 84	4.430084918324997e-08
	3.300000000000000e+00
	3.300000000000000e+00
	0.000000000000000e+00
	3.300000000000000e+00
	1.307732240033999e-04

 85	4.530084918324997e-08
	3.300000000000000e+00
	3.300000000000000e+00
	0.000000000000000e+00
	3.300000000000000e+00
	-1.268493987278251e-04

 86	4.630084918324997e-08
	3.300000000000000e+00
	3.300000000000000e+00
	0.000000000000000e+00
	3.300000000000000e+00
	1.232379005938616e-04

 87	4.730084918324998e-08
	3.300000000000000e+00
	3.300000000000000e+00
	0.000000000000000e+00
	3.300000000000000e+00
	-1.191016654837201e-04

 88	4.830084918324998e-08
	3.300000000000000e+00
	3.300000000000000e+00
	0.000000000000000e+00
	3.300000000000000e+00
	1.153385909490844e-04

 89	4.930084918324998e-08
	3.300000000000000e+00
	3.300000000000000e+00
	0.000000000000000e+00
	3.300000000000000e+00
	-1.111065994856050e-04

 90	5.030084918324998e-08
	3.300000000000000e+00
	3.300000000000000e+00
	0.000000000000000e+00
	3.300000000000000e+00
	1.072940925909045e-04

 91	5.130084918324999e-08
	3.300000000000000e+00
	3.300000000000000e+00
	0.000000000000000e+00
	3.300000000000000e+00
	-1.030553322491790e-04

 92	5.230084918324999e-08
	3.300000000000000e+00
	3.300000000000000e+00
	0.000000000000000e+00
	3.300000000000000e+00
	9.927086163629556e-05

 93	5.330084918324999e-08
	3.300000000000000e+00
	3.300000000000000e+00
	0.000000000000000e+00
	3.300000000000000e+00
	-9.509232215477482e-05

 94	5.430084918324999e-08
	3.300000000000000e+00
	3.300000000000000e+00
	0.000000000000000e+00
	3.300000000000000e+00
	9.139374339280255e-05

 95	5.530084918324999e-08
	3.300000000000000e+00
	3.300000000000000e+00
	0.000000000000000e+00
	3.300000000000000e+00
	-8.732494745464052e-05

 96	5.630084918325000e-08
	3.300000000000000e+00
	3.300000000000000e+00
	0.000000000000000e+00
	3.300000000000000e+00
	8.375455305238526e-05

 97	5.730084918325000e-08
	3.300000000000000e+00
	3.300000000000000e+00
	0.000000000000000e+00
	3.300000000000000e+00
	-7.983118148659381e-05

 98	5.830084918325000e-08
	3.300000000000000e+00
	3.300000000000000e+00
	0.000000000000000e+00
	3.300000000000000e+00
	7.641894534440863e-05

 99	5.930084918325000e-08
	3.300000000000000e+00
	3.300000000000000e+00
	0.000000000000000e+00
	3.300000000000000e+00
	-7.266574252620672e-05

 100	6.030084918325001e-08
	3.300000000000000e+00
	3.300000000000000e+00
	0.000000000000000e+00
	3.300000000000000e+00
	6.943192241074675e-05

 101	6.100000000000000e-08
	3.300000000000000e+00
	3.300000000000000e+00
	0.000000000000000e+00
	3.299999999999989e+00
	-6.444887420162596e-05

 102	6.110000000000000e-08
	3.300000000000000e+00
	3.300000000000000e+00
	0.000000000000000e+00
	2.970000000000008e+00
	-1.398562454773405e-04

 103	6.130000000000000e-08
	3.300000000000000e+00
	3.300000000000000e+00
	0.000000000000000e+00
	2.310000000000002e+00
	-3.815705398699937e-05

 104	6.170000000000000e-08
	3.300000000000000e+00
	3.300000000000000e+00
	0.000000000000000e+00
	9.900000000000122e-01
	1.068969435331218e-04

 105	6.200000000000000e-08
	3.300000000000000e+00
	3.300000000000000e+00
	0.000000000000000e+00
	2.531308496145357e-14
	-1.174461764123988e-04

 106	6.207300640780887e-08
	3.300000000000000e+00
	3.300000000000000e+00
	0.000000000000000e+00
	0.000000000000000e+00
	1.745103404844420e-04

 107	6.221901922342660e-08
	3.300000000000000e+00
	3.300000000000000e+00
	0.000000000000000e+00
	0.000000000000000e+00
	-4.699337085079663e-05

 108	6.251104485466209e-08
	3.300000000000000e+00
	3.300000000000000e+00
	0.000000000000000e+00
	0.000000000000000e+00
	1.169928257785391e-05

 109	6.309509611713306e-08
	3.300000000000000e+00
	3.300000000000000e+00
	0.000000000000000e+00
	0.000000000000000e+00
	1.643948288627267e-06

 110	6.409509611713306e-08
	3.300000000000000e+00
	3.300000000000000e+00
	0.000000000000000e+00
	0.000000000000000e+00
	-7.881977777004709e-06

 111	6.509509611713306e-08
	3.300000000000000e+00
	3.300000000000000e+00
	0.000000000000000e+00
	0.000000000000000e+00
	1.404004452390181e-05

 112	6.609509611713305e-08
	3.300000000000000e+00
	3.300000000000000e+00
	0.000000000000000e+00
	0.000000000000000e+00
	-1.876545397006858e-05

 113	6.709509611713305e-08
	3.300000000000000e+00
	3.300000000000000e+00
	0.000000000000000e+00
	0.000000000000000e+00
	2.360427176491785e-05

 114	6.809509611713304e-08
	3.300000000000000e+00
	3.300000000000000e+00
	0.000000000000000e+00
	0.000000000000000e+00
	-2.714297885617924e-05

 115	6.909509611713304e-08
	3.300000000000000e+00
	3.300000000000000e+00
	0.000000000000000e+00
	0.000000000000000e+00
	3.089897560145868e-05

 116	7.009509611713303e-08
	3.300000000000000e+00
	3.300000000000000e+00
	0.000000000000000e+00
	0.000000000000000e+00
	-3.345203828520292e-05

 117	7.109509611713303e-08
	3.300000000000000e+00
	3.300000000000000e+00
	0.000000000000000e+00
	0.000000000000000e+00
	3.632717554621738e-05

 118	7.209509611713303e-08
	3.300000000000000e+00
	3.300000000000000e+00
	0.000000000000000e+00
	0.000000000000000e+00
	-3.806121973845208e-05

 119	7.309509611713302e-08
	3.300000000000000e+00
	3.300000000000000e+00
	0.000000000000000e+00
	0.000000000000000e+00
	4.021098309032155e-05

 120	7.409509611713302e-08
	3.300000000000000e+00
	3.300000000000000e+00
	0.000000000000000e+00
	0.000000000000000e+00
	-4.127650916883711e-05

 121	7.500000000000001e-08
	3.300000000000000e+00
	3.300000000000000e+00
	0.000000000000000e+00
	0.000000000000000e+00
	4.294877981445011e-05

 122	7.510000000000000e-08
	3.300000000000000e+00
	2.970000000000019e+00
	0.000000000000000e+00
	0.000000000000000e+00
	-1.347082828994858e-04

 123	7.530000000000001e-08
	3.300000000000000e+00
	2.310000000000013e+00
	0.000000000000000e+00
	0.000000000000000e+00
	-8.305378018720611e-06

 124	7.558080062187863e-08
	3.300000000000000e+00
	1.383357947800557e+00
	0.000000000000000e+00
	0.000000000000000e+00
	1.124611518473623e-04

 125	7.597180225727833e-08
	3.300000000000000e+00
	9.305255098155429e-02
	0.000000000000000e+00
	0.000000000000000e+00
	-1.431377831932111e-03

 126	7.600000000000001e-08
	3.300000000000000e+00
	0.000000000000000e+00
	0.000000000000000e+00
	0.000000000000000e+00
	-9.890356104586273e-04

 127	7.601724474573331e-08
	3.300000000000000e+00
	0.000000000000000e+00
	0.000000000000000e+00
	0.000000000000000e+00
	3.656061845379865e-04

 128	7.605173423719990e-08
	3.300000000000000e+00
	0.000000000000000e+00
	0.000000000000000e+00
	0.000000000000000e+00
	1.724168893303374e-03

 129	7.612071322013310e-08
	3.300000000000000e+00
	0.000000000000000e+00
	0.000000000000000e+00
	0.000000000000000e+00
	1.471199119763941e-03

 130	7.625867118599951e-08
	3.300000000000000e+00
	0.000000000000000e+00
	0.000000000000000e+00
	0.000000000000000e+00
	2.961754470890490e-04

 131	7.644993976836324e-08
	3.300000000000000e+00
	0.000000000000000e+00
	0.000000000000000e+00
	0.000000000000000e+00
	-4.208363028405937e-05

 132	7.672566017261387e-08
	3.300000000000000e+00
	0.000000000000000e+00
	0.000000000000000e+00
	0.000000000000000e+00
	6.372066164407608e-05

 133	7.720391735941525e-08
	3.300000000000000e+00
	0.000000000000000e+00
	0.000000000000000e+00
	0.000000000000000e+00
	-5.256901710874382e-05

 134	7.816043173301801e-08
	3.300000000000000e+00
	0.000000000000000e+00
	0.000000000000000e+00
	0.000000000000000e+00
	5.260755204427280e-05

 135	7.916043173301800e-08
	3.300000000000000e+00
	0.000000000000000e+00
	0.000000000000000e+00
	0.000000000000000e+00
	-5.004323109737523e-05

 136	8.016043173301800e-08
	3.300000000000000e+00
	0.000000000000000e+00
	0.000000000000000e+00
	0.000000000000000e+00
	4.872336151584035e-05

 137	8.116043173301799e-08
	3.300000000000000e+00
	0.000000000000000e+00
	0.000000000000000e+00
	0.000000000000000e+00
	-4.657911787049260e-05

 138	8.199999999999999e-08
	3.300000000000000e+00
	0.000000000000000e+00
	0.000000000000000e+00
	0.000000000000000e+00
	4.481982708456379e-05

 139	8.209999999999999e-08
	3.300000000000000e+00
	0.000000000000000e+00
	3.299999999999375e-01
	3.299999999999375e-01
	2.129264717800408e-04

 140	8.229999999999999e-08
	3.300000000000000e+00
	0.000000000000000e+00
	9.899999999999434e-01
	9.899999999999434e-01
	-8.260962157603538e-03

 141	8.251291757954719e-08
	3.300000000000000e+00
	0.000000000000000e+00
	1.692628012505709e+00
	1.692628012505709e+00
	7.123526475155084e-01

 142	8.253349176503380e-08
	3.300000000000000e+00
	0.000000000000000e+00
	1.760522824611524e+00
	1.760522824611524e+00
	1.098562889588436e+00

 143	8.257464013600701e-08
	3.300000000000000e+00
	0.000000000000000e+00
	1.896312448823110e+00
	1.896312448823110e+00
	2.064127491854480e+00

 144	8.263892020635899e-08
	3.300000000000000e+00
	0.000000000000000e+00
	2.108436680984640e+00
	2.108436680984640e+00
	3.161926875959970e+00

 145	8.270811119610186e-08
	3.300000000000000e+00
	0.000000000000000e+00
	2.336766947136115e+00
	2.336766947136115e+00
	2.635327422795432e+00

 146	8.280203972573293e-08
	3.300000000000000e+00
	0.000000000000000e+00
	2.646731094918650e+00
	2.646731094918650e+00
	4.440659617991589e-01

 147	8.288569643801972e-08
	3.300000000000000e+00
	0.000000000000000e+00
	2.922798245465044e+00
	2.922798245465044e+00
	-1.433711157576037e-01

 148	8.297555662024492e-08
	3.300000000000000e+00
	0.000000000000000e+00
	3.219336846808226e+00
	3.219336846808226e+00
	6.701587218524109e-02

 149	8.300000000000000e-08
	3.300000000000000e+00
	0.000000000000000e+00
	3.299999999999986e+00
	3.299999999999986e+00
	6.555696123624555e-03

 150	8.301573213594177e-08
	3.300000000000000e+00
	0.000000000000000e+00
	3.300000000000000e+00
	3.300000000000000e+00
	3.863580009254103e-03

 151	8.304719640782532e-08
	3.300000000000000e+00
	0.000000000000000e+00
	3.300000000000000e+00
	3.300000000000000e+00
	5.264535487529143e-04

 152	8.311012495159241e-08
	3.300000000000000e+00
	0.000000000000000e+00
	3.300000000000000e+00
	3.300000000000000e+00
	-2.354742280049754e-04

 153	8.323598203912658e-08
	3.300000000000000e+00
	0.000000000000000e+00
	3.300000000000000e+00
	3.300000000000000e+00
	1.835569086797301e-04

 154	8.348769621419492e-08
	3.300000000000000e+00
	0.000000000000000e+00
	3.300000000000000e+00
	3.300000000000000e+00
	-1.466051480783631e-04

 155	8.399112456433161e-08
	3.300000000000000e+00
	0.000000000000000e+00
	3.300000000000000e+00
	3.300000000000000e+00
	1.393277816137337e-04

 156	8.499112456433161e-08
	3.300000000000000e+00
	0.000000000000000e+00
	3.300000000000000e+00
	3.300000000000000e+00
	-1.326934131872948e-04

 157	8.599112456433160e-08
	3.300000000000000e+00
	0.000000000000000e+00
	3.300000000000000e+00
	3.300000000000000e+00
	1.282790240920411e-04

 158	8.699112456433160e-08
	3.300000000000000e+00
	0.000000000000000e+00
	3.300000000000000e+00
	3.300000000000000e+00
	-1.230531045909051e-04

 159	8.799112456433160e-08
	3.300000000000000e+00
	0.000000000000000e+00
	3.300000000000000e+00
	3.300000000000000e+00
	1.188147473945456e-04

 160	8.899112456433159e-08
	3.300000000000000e+00
	0.000000000000000e+00
	3.300000000000000e+00
	3.300000000000000e+00
	-1.141387339092300e-04

 161	8.999112456433159e-08
	3.300000000000000e+00
	0.000000000000000e+00
	3.300000000000000e+00
	3.300000000000000e+00
	1.110172059369096e-04

 162	9.099112456433158e-08
	3.300000000000000e+00
	0.000000000000000e+00
	3.300000000000000e+00
	3.300000000000000e+00
	-1.059282882447665e-04

 163	9.199112456433158e-08
	3.300000000000000e+00
	0.000000000000000e+00
	3.300000000000000e+00
	3.300000000000000e+00
	1.031200939686280e-04

 164	9.299112456433157e-08
	3.300000000000000e+00
	0.000000000000000e+00
	3.300000000000000e+00
	3.300000000000000e+00
	-9.842660148024103e-05

 165	9.399112456433157e-08
	3.300000000000000e+00
	0.000000000000000e+00
	3.300000000000000e+00
	3.300000000000000e+00
	9.590900802230497e-05

 166	9.499112456433157e-08
	3.300000000000000e+00
	0.000000000000000e+00
	3.300000000000000e+00
	3.300000000000000e+00
	-9.156540410078066e-05

 167	9.599112456433156e-08
	3.300000000000000e+00
	0.000000000000000e+00
	3.300000000000000e+00
	3.300000000000000e+00
	8.931263464977308e-05

 168	9.699112456433156e-08
	3.300000000000000e+00
	0.000000000000000e+00
	3.300000000000000e+00
	3.300000000000000e+00
	-8.528156346696361e-05

 169	9.799112456433155e-08
	3.300000000000000e+00
	0.000000000000000e+00
	3.300000000000000e+00
	3.300000000000000e+00
	8.326860703882291e-05

 170	9.899112456433155e-08
	3.300000000000000e+00
	0.000000000000000e+00
	3.300000000000000e+00
	3.300000000000000e+00
	-7.917735974715887e-05

 171	9.999112456433154e-08
	3.300000000000000e+00
	0.000000000000000e+00
	3.300000000000000e+00
	3.300000000000000e+00
	7.776893419159797e-05

 172	1.009911245643315e-07
	3.300000000000000e+00
	0.000000000000000e+00
	3.300000000000000e+00
	3.300000000000000e+00
	-7.389810166587470e-05

 173	1.010000000000000e-07
	3.300000000000000e+00
	0.000000000000000e+00
	3.300000000000000e+00
	3.300000000000000e+00
	-1.998495367960818e-05

 174	1.010177508713369e-07
	3.300000000000000e+00
	0.000000000000000e+00
	3.300000000000000e+00
	3.241422124588142e+00
	-2.218143120352734e-04

 175	1.010532526140108e-07
	3.300000000000000e+00
	0.000000000000000e+00
	3.300000000000000e+00
	3.124266373764403e+00
	-2.591581080073624e-04

 176	1.011242560993585e-07
	3.300000000000000e+00
	0.000000000000000e+00
	3.300000000000000e+00
	2.889954872116927e+00
	2.740696212515104e-05

 177	1.012662630700540e-07
	3.300000000000000e+00
	0.000000000000000e+00
	3.300000000000000e+00
	2.421331868821973e+00
	-1.466993237093581e-04

 178	1.015502770114448e-07
	3.300000000000000e+00
	0.000000000000000e+00
	3.300000000000000e+00
	1.484085862232066e+00
	1.997638321734330e-04

 179	1.020000000000000e-07
	3.300000000000000e+00
	0.000000000000000e+00
	3.300000000000000e+00
	2.531308496145357e-14
	-1.777350786206777e-04

 180	1.020568027882782e-07
	3.300000000000000e+00
	0.000000000000000e+00
	3.300000000000000e+00
	0.000000000000000e+00
	1.717541553199753e-04

 181	1.021704083648345e-07
	3.300000000000000e+00
	0.000000000000000e+00
	3.300000000000000e+00
	0.000000000000000e+00
	-6.325541717741578e-06

 182	1.023976195179472e-07
	3.300000000000000e+00
	0.000000000000000e+00
	3.300000000000000e+00
	0.000000000000000e+00
	-2.670120298637474e-05

 183	1.028520418241726e-07
	3.300000000000000e+00
	0.000000000000000e+00
	3.300000000000000e+00
	0.000000000000000e+00
	3.719571586392051e-05

 184	1.037608864366235e-07
	3.300000000000000e+00
	0.000000000000000e+00
	3.300000000000000e+00
	0.000000000000000e+00
	-4.094271335980219e-05

 185	1.047608864366235e-07
	3.300000000000000e+00
	0.000000000000000e+00
	3.300000000000000e+00
	0.000000000000000e+00
	4.418200847015018e-05

 186	1.057608864366234e-07
	3.300000000000000e+00
	0.000000000000000e+00
	3.300000000000000e+00
	0.000000000000000e+00
	-4.650285078015154e-05

 187	1.067608864366234e-07
	3.300000000000000e+00
	0.000000000000000e+00
	3.300000000000000e+00
	0.000000000000000e+00
	4.882057024535418e-05

 188	1.077608864366234e-07
	3.300000000000000e+00
	0.000000000000000e+00
	3.300000000000000e+00
	0.000000000000000e+00
	-5.021084763306115e-05

 189	1.087608864366234e-07
	3.300000000000000e+00
	0.000000000000000e+00
	3.300000000000000e+00
	0.000000000000000e+00
	5.189239242000404e-05

 190	1.097608864366234e-07
	3.300000000000000e+00
	0.000000000000000e+00
	3.300000000000000e+00
	0.000000000000000e+00
	-5.260840616273105e-05

 191	1.107608864366234e-07
	3.300000000000000e+00
	0.000000000000000e+00
	3.300000000000000e+00
	0.000000000000000e+00
	5.368713273001292e-05

 192	1.117608864366234e-07
	3.300000000000000e+00
	0.000000000000000e+00
	3.300000000000000e+00
	0.000000000000000e+00
	-5.386762512406100e-05

 193	1.127608864366234e-07
	3.300000000000000e+00
	0.000000000000000e+00
	3.300000000000000e+00
	0.000000000000000e+00
	5.446511435060891e-05

 194	1.137608864366234e-07
	3.300000000000000e+00
	0.000000000000000e+00
	3.300000000000000e+00
	0.000000000000000e+00
	-5.422345798995060e-05

 195	1.147608864366234e-07
	3.300000000000000e+00
	0.000000000000000e+00
	3.300000000000000e+00
	0.000000000000000e+00
	5.444048568727274e-05

 196	1.157608864366234e-07
	3.300000000000000e+00
	0.000000000000000e+00
	3.300000000000000e+00
	0.000000000000000e+00
	-5.386987058932785e-05

 197	1.167608864366234e-07
	3.300000000000000e+00
	0.000000000000000e+00
	3.300000000000000e+00
	0.000000000000000e+00
	5.378971929015548e-05

 198	1.177608864366234e-07
	3.300000000000000e+00
	0.000000000000000e+00
	3.300000000000000e+00
	0.000000000000000e+00
	-5.296653063062429e-05

 199	1.187608864366234e-07
	3.300000000000000e+00
	0.000000000000000e+00
	3.300000000000000e+00
	0.000000000000000e+00
	5.265759745362933e-05

 200	1.190000000000000e-07
	3.300000000000000e+00
	0.000000000000000e+00
	3.300000000000000e+00
	0.000000000000000e+00
	-4.902576562247629e-05

 201	1.191000000000000e-07
	3.300000000000000e+00
	0.000000000000000e+00
	2.970000000000041e+00
	0.000000000000000e+00
	-4.402352460908254e-06

 202	1.193000000000000e-07
	3.300000000000000e+00
	0.000000000000000e+00
	2.310000000000079e+00
	0.000000000000000e+00
	4.203979881158004e-05

 203	1.195807150957205e-07
	3.300000000000000e+00
	0.000000000000000e+00
	1.383640184122539e+00
	0.000000000000000e+00
	1.400414860384461e-04

 204	1.200000000000000e-07
	3.300000000000000e+00
	0.000000000000000e+00
	0.000000000000000e+00
	0.000000000000000e+00
	-3.218509302494593e-05

 205	1.200444495234230e-07
	3.300000000000000e+00
	0.000000000000000e+00
	0.000000000000000e+00
	0.000000000000000e+00
	-7.113854885736626e-04

 206	1.201333485702689e-07
	3.300000000000000e+00
	0.000000000000000e+00
	0.000000000000000e+00
	0.000000000000000e+00
	-3.130997924356560e-04

 207	1.203111466639607e-07
	3.300000000000000e+00
	0.000000000000000e+00
	0.000000000000000e+00
	0.000000000000000e+00
	4.306793391216993e-04
