Title: * spice3 file created from seg_g.ext - technology: tsmc
Date: Wed Apr 26 17:20:42  2017
Plotname: Transient Analysis
Flags: real
No. Variables: 6
No. Points: 582
Variables:
	0	time	time
	1	a	voltage
	2	b	voltage
	3	c	voltage
	4	d	voltage
	5	y	voltage
Values:
 0	0.000000000000000e+00
	0.000000000000000e+00
	0.000000000000000e+00
	0.000000000000000e+00
	0.000000000000000e+00
	3.299999874894306e+00

 1	1.000000000000000e-11
	0.000000000000000e+00
	0.000000000000000e+00
	0.000000000000000e+00
	0.000000000000000e+00
	3.299999874894402e+00

 2	2.000000000000000e-11
	0.000000000000000e+00
	0.000000000000000e+00
	0.000000000000000e+00
	0.000000000000000e+00
	3.299999874894594e+00

 3	4.000000000000000e-11
	0.000000000000000e+00
	0.000000000000000e+00
	0.000000000000000e+00
	0.000000000000000e+00
	3.299999874894904e+00

 4	8.000000000000001e-11
	0.000000000000000e+00
	0.000000000000000e+00
	0.000000000000000e+00
	0.000000000000000e+00
	3.299999874894466e+00

 5	1.600000000000000e-10
	0.000000000000000e+00
	0.000000000000000e+00
	0.000000000000000e+00
	0.000000000000000e+00
	3.299999874894633e+00

 6	3.200000000000000e-10
	0.000000000000000e+00
	0.000000000000000e+00
	0.000000000000000e+00
	0.000000000000000e+00
	3.299999874894822e+00

 7	6.400000000000001e-10
	0.000000000000000e+00
	0.000000000000000e+00
	0.000000000000000e+00
	0.000000000000000e+00
	3.299999874895053e+00

 8	1.280000000000000e-09
	0.000000000000000e+00
	0.000000000000000e+00
	0.000000000000000e+00
	0.000000000000000e+00
	3.299999874895776e+00

 9	2.280000000000000e-09
	0.000000000000000e+00
	0.000000000000000e+00
	0.000000000000000e+00
	0.000000000000000e+00
	3.299999874894057e+00

 10	3.280000000000000e-09
	0.000000000000000e+00
	0.000000000000000e+00
	0.000000000000000e+00
	0.000000000000000e+00
	3.299999874894902e+00

 11	4.280000000000000e-09
	0.000000000000000e+00
	0.000000000000000e+00
	0.000000000000000e+00
	0.000000000000000e+00
	3.299999874893795e+00

 12	5.280000000000000e-09
	0.000000000000000e+00
	0.000000000000000e+00
	0.000000000000000e+00
	0.000000000000000e+00
	3.299999874894440e+00

 13	6.280000000000000e-09
	0.000000000000000e+00
	0.000000000000000e+00
	0.000000000000000e+00
	0.000000000000000e+00
	3.299999874893952e+00

 14	7.280000000000000e-09
	0.000000000000000e+00
	0.000000000000000e+00
	0.000000000000000e+00
	0.000000000000000e+00
	3.299999874894739e+00

 15	8.280000000000000e-09
	0.000000000000000e+00
	0.000000000000000e+00
	0.000000000000000e+00
	0.000000000000000e+00
	3.299999874894048e+00

 16	9.280000000000001e-09
	0.000000000000000e+00
	0.000000000000000e+00
	0.000000000000000e+00
	0.000000000000000e+00
	3.299999874894596e+00

 17	1.028000000000000e-08
	0.000000000000000e+00
	0.000000000000000e+00
	0.000000000000000e+00
	0.000000000000000e+00
	3.299999874894096e+00

 18	1.128000000000000e-08
	0.000000000000000e+00
	0.000000000000000e+00
	0.000000000000000e+00
	0.000000000000000e+00
	3.299999874894771e+00

 19	1.228000000000000e-08
	0.000000000000000e+00
	0.000000000000000e+00
	0.000000000000000e+00
	0.000000000000000e+00
	3.299999874894063e+00

 20	1.328000000000000e-08
	0.000000000000000e+00
	0.000000000000000e+00
	0.000000000000000e+00
	0.000000000000000e+00
	3.299999874894509e+00

 21	1.428000000000000e-08
	0.000000000000000e+00
	0.000000000000000e+00
	0.000000000000000e+00
	0.000000000000000e+00
	3.299999874894011e+00

 22	1.528000000000001e-08
	0.000000000000000e+00
	0.000000000000000e+00
	0.000000000000000e+00
	0.000000000000000e+00
	3.299999874894616e+00

 23	1.628000000000000e-08
	0.000000000000000e+00
	0.000000000000000e+00
	0.000000000000000e+00
	0.000000000000000e+00
	3.299999874894279e+00

 24	1.728000000000000e-08
	0.000000000000000e+00
	0.000000000000000e+00
	0.000000000000000e+00
	0.000000000000000e+00
	3.299999874894628e+00

 25	1.828000000000000e-08
	0.000000000000000e+00
	0.000000000000000e+00
	0.000000000000000e+00
	0.000000000000000e+00
	3.299999874894088e+00

 26	1.928000000000000e-08
	0.000000000000000e+00
	0.000000000000000e+00
	0.000000000000000e+00
	0.000000000000000e+00
	3.299999874894591e+00

 27	2.000000000000000e-08
	0.000000000000000e+00
	0.000000000000000e+00
	0.000000000000000e+00
	0.000000000000000e+00
	3.299999874893817e+00

 28	2.010000000000000e-08
	3.300000000000030e-01
	3.300000000000030e-01
	3.300000000000030e-01
	3.300000000000030e-01
	3.300168583631545e+00

 29	2.030000000000000e-08
	9.899999999999980e-01
	9.899999999999980e-01
	9.899999999999980e-01
	9.899999999999980e-01
	3.298251637855309e+00

 30	2.050747628876215e-08
	1.674671752915094e+00
	1.674671752915094e+00
	1.674671752915094e+00
	1.674671752915094e+00
	3.304124933511813e+00

 31	2.075269718367465e-08
	2.483900706126336e+00
	2.483900706126336e+00
	2.483900706126336e+00
	2.483900706126336e+00
	3.730848543190735e-01

 32	2.092717877666202e-08
	3.059689962984661e+00
	3.059689962984661e+00
	3.059689962984661e+00
	3.059689962984661e+00
	-2.223080734624889e-01

 33	2.100000000000000e-08
	3.299999999999997e+00
	3.299999999999997e+00
	3.299999999999997e+00
	3.299999999999997e+00
	5.644808211023755e-02

 34	2.101794308671657e-08
	3.300000000000000e+00
	3.300000000000000e+00
	3.300000000000000e+00
	3.300000000000000e+00
	2.781434522154341e-02

 35	2.105382926014972e-08
	3.300000000000000e+00
	3.300000000000000e+00
	3.300000000000000e+00
	3.300000000000000e+00
	2.494813791309947e-03

 36	2.112560160701603e-08
	3.300000000000000e+00
	3.300000000000000e+00
	3.300000000000000e+00
	3.300000000000000e+00
	-1.002710935281176e-03

 37	2.126914630074863e-08
	3.300000000000000e+00
	3.300000000000000e+00
	3.300000000000000e+00
	3.300000000000000e+00
	4.723503941797130e-04

 38	2.150527891514085e-08
	3.300000000000000e+00
	3.300000000000000e+00
	3.300000000000000e+00
	3.300000000000000e+00
	-2.616672207992471e-04

 39	2.197754414392529e-08
	3.300000000000000e+00
	3.300000000000000e+00
	3.300000000000000e+00
	3.300000000000000e+00
	1.768817891150132e-04

 40	2.292207460149417e-08
	3.300000000000000e+00
	3.300000000000000e+00
	3.300000000000000e+00
	3.300000000000000e+00
	-1.385686067455483e-04

 41	2.392207460149416e-08
	3.300000000000000e+00
	3.300000000000000e+00
	3.300000000000000e+00
	3.300000000000000e+00
	1.046223832599780e-04

 42	2.492207460149416e-08
	3.300000000000000e+00
	3.300000000000000e+00
	3.300000000000000e+00
	3.300000000000000e+00
	-7.269281717067061e-05

 43	2.592207460149416e-08
	3.300000000000000e+00
	3.300000000000000e+00
	3.300000000000000e+00
	3.300000000000000e+00
	4.267516410412509e-05

 44	2.692207460149416e-08
	3.300000000000000e+00
	3.300000000000000e+00
	3.300000000000000e+00
	3.300000000000000e+00
	-1.441283655349845e-05

 45	2.792207460149416e-08
	3.300000000000000e+00
	3.300000000000000e+00
	3.300000000000000e+00
	3.300000000000000e+00
	-1.214719057983371e-05

 46	2.892207460149416e-08
	3.300000000000000e+00
	3.300000000000000e+00
	3.300000000000000e+00
	3.300000000000000e+00
	3.721029536539466e-05

 47	2.992207460149416e-08
	3.300000000000000e+00
	3.300000000000000e+00
	3.300000000000000e+00
	3.300000000000000e+00
	-6.073301210558074e-05

 48	3.092207460149416e-08
	3.300000000000000e+00
	3.300000000000000e+00
	3.300000000000000e+00
	3.300000000000000e+00
	8.298137091792071e-05

 49	3.192207460149417e-08
	3.300000000000000e+00
	3.300000000000000e+00
	3.300000000000000e+00
	3.300000000000000e+00
	-1.038271308808278e-04

 50	3.292207460149417e-08
	3.300000000000000e+00
	3.300000000000000e+00
	3.300000000000000e+00
	3.300000000000000e+00
	1.235911089507366e-04

 51	3.392207460149417e-08
	3.300000000000000e+00
	3.300000000000000e+00
	3.300000000000000e+00
	3.300000000000000e+00
	-1.420702094664071e-04

 52	3.492207460149417e-08
	3.300000000000000e+00
	3.300000000000000e+00
	3.300000000000000e+00
	3.300000000000000e+00
	1.596350055005184e-04

 53	3.592207460149418e-08
	3.300000000000000e+00
	3.300000000000000e+00
	3.300000000000000e+00
	3.300000000000000e+00
	-1.760160487470873e-04

 54	3.692207460149418e-08
	3.300000000000000e+00
	3.300000000000000e+00
	3.300000000000000e+00
	3.300000000000000e+00
	1.916290323536393e-04

 55	3.792207460149418e-08
	3.300000000000000e+00
	3.300000000000000e+00
	3.300000000000000e+00
	3.300000000000000e+00
	-2.061455041861802e-04

 56	3.892207460149418e-08
	3.300000000000000e+00
	3.300000000000000e+00
	3.300000000000000e+00
	3.300000000000000e+00
	2.200220967444218e-04

 57	3.900000000000001e-08
	3.300000000000000e+00
	3.300000000000000e+00
	3.300000000000000e+00
	3.299999999999989e+00
	-3.414932863221032e-04

 58	3.902902037103744e-08
	3.300000000000000e+00
	3.300000000000000e+00
	3.300000000000000e+00
	3.204232775576453e+00
	-7.042166894566382e-05

 59	3.908706111311231e-08
	3.300000000000000e+00
	3.300000000000000e+00
	3.300000000000000e+00
	3.012698326729381e+00
	-1.058565131817624e-04

 60	3.920314259726206e-08
	3.300000000000000e+00
	3.300000000000000e+00
	3.300000000000000e+00
	2.629629429035214e+00
	-2.266682827034572e-05

 61	3.943530556556155e-08
	3.300000000000000e+00
	3.300000000000000e+00
	3.300000000000000e+00
	1.863491633646903e+00
	5.289907442274089e-05

 62	3.970608695076947e-08
	3.300000000000000e+00
	3.300000000000000e+00
	3.300000000000000e+00
	9.699130624607597e-01
	2.045533894551727e-04

 63	3.995573072810919e-08
	3.300000000000000e+00
	3.300000000000000e+00
	3.300000000000000e+00
	1.460885972396646e-01
	-4.795201408226563e-04

 64	4.000000000000001e-08
	3.300000000000000e+00
	3.300000000000000e+00
	3.300000000000000e+00
	0.000000000000000e+00
	1.469166270851030e-04

 65	4.002571064838786e-08
	3.300000000000000e+00
	3.300000000000000e+00
	3.300000000000000e+00
	0.000000000000000e+00
	3.070283260214191e-04

 66	4.007713194516355e-08
	3.300000000000000e+00
	3.300000000000000e+00
	3.300000000000000e+00
	0.000000000000000e+00
	1.271811852520954e-04

 67	4.017997453871495e-08
	3.300000000000000e+00
	3.300000000000000e+00
	3.300000000000000e+00
	0.000000000000000e+00
	-7.660622617386426e-05

 68	4.038565972581775e-08
	3.300000000000000e+00
	3.300000000000000e+00
	3.300000000000000e+00
	0.000000000000000e+00
	6.562487320482813e-05

 69	4.079703010002335e-08
	3.300000000000000e+00
	3.300000000000000e+00
	3.300000000000000e+00
	0.000000000000000e+00
	-6.050818467617097e-05

 70	4.161977084843454e-08
	3.300000000000000e+00
	3.300000000000000e+00
	3.300000000000000e+00
	0.000000000000000e+00
	5.843173047768296e-05

 71	4.261977084843454e-08
	3.300000000000000e+00
	3.300000000000000e+00
	3.300000000000000e+00
	0.000000000000000e+00
	-5.640450031978508e-05

 72	4.361977084843454e-08
	3.300000000000000e+00
	3.300000000000000e+00
	3.300000000000000e+00
	0.000000000000000e+00
	5.486418034897009e-05

 73	4.461977084843455e-08
	3.300000000000000e+00
	3.300000000000000e+00
	3.300000000000000e+00
	0.000000000000000e+00
	-5.295574064583669e-05

 74	4.561977084843455e-08
	3.300000000000000e+00
	3.300000000000000e+00
	3.300000000000000e+00
	0.000000000000000e+00
	5.152844860664696e-05

 75	4.661977084843455e-08
	3.300000000000000e+00
	3.300000000000000e+00
	3.300000000000000e+00
	0.000000000000000e+00
	-4.972869679501987e-05

 76	4.761977084843455e-08
	3.300000000000000e+00
	3.300000000000000e+00
	3.300000000000000e+00
	0.000000000000000e+00
	4.840511247966237e-05

 77	4.861977084843456e-08
	3.300000000000000e+00
	3.300000000000000e+00
	3.300000000000000e+00
	0.000000000000000e+00
	-4.670531863187541e-05

 78	4.961977084843456e-08
	3.300000000000000e+00
	3.300000000000000e+00
	3.300000000000000e+00
	0.000000000000000e+00
	4.547734260607408e-05

 79	5.061977084843456e-08
	3.300000000000000e+00
	3.300000000000000e+00
	3.300000000000000e+00
	0.000000000000000e+00
	-4.386987952603380e-05

 80	5.161977084843456e-08
	3.300000000000000e+00
	3.300000000000000e+00
	3.300000000000000e+00
	0.000000000000000e+00
	4.273039622014127e-05

 81	5.261977084843457e-08
	3.300000000000000e+00
	3.300000000000000e+00
	3.300000000000000e+00
	0.000000000000000e+00
	-4.120852898567215e-05

 82	5.361977084843457e-08
	3.300000000000000e+00
	3.300000000000000e+00
	3.300000000000000e+00
	0.000000000000000e+00
	4.015122247965838e-05

 83	5.461977084843457e-08
	3.300000000000000e+00
	3.300000000000000e+00
	3.300000000000000e+00
	0.000000000000000e+00
	-3.870894520980467e-05

 84	5.561977084843457e-08
	3.300000000000000e+00
	3.300000000000000e+00
	3.300000000000000e+00
	0.000000000000000e+00
	3.772815668982854e-05

 85	5.661977084843457e-08
	3.300000000000000e+00
	3.300000000000000e+00
	3.300000000000000e+00
	0.000000000000000e+00
	-3.636006624722216e-05

 86	5.700000000000001e-08
	3.300000000000000e+00
	3.300000000000000e+00
	3.300000000000000e+00
	0.000000000000000e+00
	3.370016560463179e-05

 87	5.710000000000001e-08
	3.300000000000000e+00
	3.300000000000000e+00
	2.969999999999997e+00
	0.000000000000000e+00
	-4.885883222567611e-05

 88	5.730000000000001e-08
	3.300000000000000e+00
	3.300000000000000e+00
	2.309999999999992e+00
	0.000000000000000e+00
	1.809409786776572e-05

 89	5.758413594805748e-08
	3.300000000000000e+00
	3.300000000000000e+00
	1.372351371410331e+00
	0.000000000000000e+00
	-2.534569449119534e-04

 90	5.786942647837832e-08
	3.300000000000000e+00
	3.300000000000000e+00
	4.308926213515747e-01
	0.000000000000000e+00
	2.271893769040723e+00

 91	5.800000000000001e-08
	3.300000000000000e+00
	3.300000000000000e+00
	0.000000000000000e+00
	0.000000000000000e+00
	3.303900628169616e+00

 92	5.802720153255324e-08
	3.300000000000000e+00
	3.300000000000000e+00
	0.000000000000000e+00
	0.000000000000000e+00
	3.302429523862040e+00

 93	5.808160459765970e-08
	3.300000000000000e+00
	3.300000000000000e+00
	0.000000000000000e+00
	0.000000000000000e+00
	3.299694244463100e+00

 94	5.819041072787262e-08
	3.300000000000000e+00
	3.300000000000000e+00
	0.000000000000000e+00
	0.000000000000000e+00
	3.299964383385010e+00

 95	5.840802298829845e-08
	3.300000000000000e+00
	3.300000000000000e+00
	0.000000000000000e+00
	0.000000000000000e+00
	3.299993880671847e+00

 96	5.869841980510601e-08
	3.300000000000000e+00
	3.300000000000000e+00
	0.000000000000000e+00
	0.000000000000000e+00
	3.300005415702913e+00

 97	5.916896636855462e-08
	3.300000000000000e+00
	3.300000000000000e+00
	0.000000000000000e+00
	0.000000000000000e+00
	3.300001344331214e+00

 98	6.000000000000001e-08
	3.300000000000000e+00
	3.300000000000000e+00
	0.000000000000000e+00
	2.183756817139993e-14
	3.299995440927662e+00

 99	6.009410931268974e-08
	3.300000000000000e+00
	3.300000000000000e+00
	0.000000000000000e+00
	3.105607318761274e-01
	3.300041191581799e+00

 100	6.028232793806918e-08
	3.300000000000000e+00
	3.300000000000000e+00
	0.000000000000000e+00
	9.316821956282949e-01
	3.299825014435619e+00

 101	6.053138947493764e-08
	3.300000000000000e+00
	3.300000000000000e+00
	0.000000000000000e+00
	1.753585267294218e+00
	3.301425697937884e+00

 102	6.079335063013540e-08
	3.300000000000000e+00
	3.300000000000000e+00
	0.000000000000000e+00
	2.618057079446806e+00
	5.791372453851020e-01

 103	6.100000000000000e-08
	3.300000000000000e+00
	3.300000000000000e+00
	0.000000000000000e+00
	3.300000000000000e+00
	-2.449691703959923e-01

 104	6.102453385764354e-08
	3.300000000000000e+00
	3.300000000000000e+00
	0.000000000000000e+00
	3.300000000000000e+00
	-1.043469557467546e-01

 105	6.107360157293060e-08
	3.300000000000000e+00
	3.300000000000000e+00
	0.000000000000000e+00
	3.300000000000000e+00
	1.184465599360698e-02

 106	6.117173700350473e-08
	3.300000000000000e+00
	3.300000000000000e+00
	0.000000000000000e+00
	3.300000000000000e+00
	-7.463472875626515e-03

 107	6.133842172406186e-08
	3.300000000000000e+00
	3.300000000000000e+00
	0.000000000000000e+00
	3.300000000000000e+00
	5.561171356022646e-03

 108	6.154121908499439e-08
	3.300000000000000e+00
	3.300000000000000e+00
	0.000000000000000e+00
	3.300000000000000e+00
	-4.346775118100318e-03

 109	6.194681380685946e-08
	3.300000000000000e+00
	3.300000000000000e+00
	0.000000000000000e+00
	3.300000000000000e+00
	3.852347230986354e-03

 110	6.275800325058960e-08
	3.300000000000000e+00
	3.300000000000000e+00
	0.000000000000000e+00
	3.300000000000000e+00
	-3.625146655434973e-03

 111	6.375800325058959e-08
	3.300000000000000e+00
	3.300000000000000e+00
	0.000000000000000e+00
	3.300000000000000e+00
	3.453041973914703e-03

 112	6.475800325058959e-08
	3.300000000000000e+00
	3.300000000000000e+00
	0.000000000000000e+00
	3.300000000000000e+00
	-3.287485562268610e-03

 113	6.575800325058959e-08
	3.300000000000000e+00
	3.300000000000000e+00
	0.000000000000000e+00
	3.300000000000000e+00
	3.131836575770167e-03

 114	6.675800325058958e-08
	3.300000000000000e+00
	3.300000000000000e+00
	0.000000000000000e+00
	3.300000000000000e+00
	-2.982220166278120e-03

 115	6.775800325058958e-08
	3.300000000000000e+00
	3.300000000000000e+00
	0.000000000000000e+00
	3.300000000000000e+00
	2.841437585011600e-03

 116	6.875800325058957e-08
	3.300000000000000e+00
	3.300000000000000e+00
	0.000000000000000e+00
	3.300000000000000e+00
	-2.706146683353134e-03

 117	6.975800325058957e-08
	3.300000000000000e+00
	3.300000000000000e+00
	0.000000000000000e+00
	3.300000000000000e+00
	2.578766165714251e-03

 118	7.075800325058956e-08
	3.300000000000000e+00
	3.300000000000000e+00
	0.000000000000000e+00
	3.300000000000000e+00
	-2.456357230031701e-03

 119	7.175800325058956e-08
	3.300000000000000e+00
	3.300000000000000e+00
	0.000000000000000e+00
	3.300000000000000e+00
	2.341050725998474e-03

 120	7.275800325058956e-08
	3.300000000000000e+00
	3.300000000000000e+00
	0.000000000000000e+00
	3.300000000000000e+00
	-2.230229551882318e-03

 121	7.375800325058955e-08
	3.300000000000000e+00
	3.300000000000000e+00
	0.000000000000000e+00
	3.300000000000000e+00
	2.125799066806374e-03

 122	7.475800325058955e-08
	3.300000000000000e+00
	3.300000000000000e+00
	0.000000000000000e+00
	3.300000000000000e+00
	-2.025405344544432e-03

 123	7.575800325058954e-08
	3.300000000000000e+00
	3.300000000000000e+00
	0.000000000000000e+00
	3.300000000000000e+00
	1.930773161120027e-03

 124	7.675800325058954e-08
	3.300000000000000e+00
	3.300000000000000e+00
	0.000000000000000e+00
	3.300000000000000e+00
	-1.839767077297074e-03

 125	7.775800325058953e-08
	3.300000000000000e+00
	3.300000000000000e+00
	0.000000000000000e+00
	3.300000000000000e+00
	1.753965214407800e-03

 126	7.875800325058953e-08
	3.300000000000000e+00
	3.300000000000000e+00
	0.000000000000000e+00
	3.300000000000000e+00
	-1.671415267800919e-03

 127	7.900000000000001e-08
	3.300000000000000e+00
	3.300000000000000e+00
	0.000000000000000e+00
	3.299999999999989e+00
	1.371639139463518e-03

 128	7.905586722145814e-08
	3.300000000000000e+00
	3.300000000000000e+00
	0.000000000000000e+00
	3.115638169188154e+00
	1.756685347757414e-04

 129	7.916760166437440e-08
	3.300000000000000e+00
	3.300000000000000e+00
	0.000000000000000e+00
	2.746914507564485e+00
	-1.705805129403881e-04

 130	7.939107055020694e-08
	3.300000000000000e+00
	3.300000000000000e+00
	0.000000000000000e+00
	2.009467184317101e+00
	1.524677568801869e-04

 131	7.962644244432322e-08
	3.300000000000000e+00
	3.300000000000000e+00
	0.000000000000000e+00
	1.232739933733364e+00
	-2.244251382209017e-03

 132	7.985084842209844e-08
	3.300000000000000e+00
	3.300000000000000e+00
	0.000000000000000e+00
	4.922002070751659e-01
	2.032718497573608e+00

 133	8.000000000000000e-08
	3.300000000000000e+00
	3.300000000000000e+00
	0.000000000000000e+00
	0.000000000000000e+00
	3.322464816134338e+00

 134	8.002372449614144e-08
	3.300000000000000e+00
	3.300000000000000e+00
	0.000000000000000e+00
	0.000000000000000e+00
	3.312492118247343e+00

 135	8.007117348842433e-08
	3.300000000000000e+00
	3.300000000000000e+00
	0.000000000000000e+00
	0.000000000000000e+00
	3.300950382116060e+00

 136	8.016607147299010e-08
	3.300000000000000e+00
	3.300000000000000e+00
	0.000000000000000e+00
	0.000000000000000e+00
	3.300101946185848e+00

 137	8.035586744212165e-08
	3.300000000000000e+00
	3.300000000000000e+00
	0.000000000000000e+00
	0.000000000000000e+00
	3.299920429612478e+00

 138	8.063831546679037e-08
	3.300000000000000e+00
	3.300000000000000e+00
	0.000000000000000e+00
	0.000000000000000e+00
	3.300059430497757e+00

 139	8.120321151612780e-08
	3.300000000000000e+00
	3.300000000000000e+00
	0.000000000000000e+00
	0.000000000000000e+00
	3.299951198435118e+00

 140	8.220321151612780e-08
	3.300000000000000e+00
	3.300000000000000e+00
	0.000000000000000e+00
	0.000000000000000e+00
	3.300042617282613e+00

 141	8.320321151612779e-08
	3.300000000000000e+00
	3.300000000000000e+00
	0.000000000000000e+00
	0.000000000000000e+00
	3.299963339944760e+00

 142	8.420321151612779e-08
	3.300000000000000e+00
	3.300000000000000e+00
	0.000000000000000e+00
	0.000000000000000e+00
	3.300030592503257e+00

 143	8.520321151612778e-08
	3.300000000000000e+00
	3.300000000000000e+00
	0.000000000000000e+00
	0.000000000000000e+00
	3.299975186141461e+00

 144	8.620321151612778e-08
	3.300000000000000e+00
	3.300000000000000e+00
	0.000000000000000e+00
	0.000000000000000e+00
	3.300018976575475e+00

 145	8.720321151612777e-08
	3.300000000000000e+00
	3.300000000000000e+00
	0.000000000000000e+00
	0.000000000000000e+00
	3.299986530301098e+00

 146	8.820321151612777e-08
	3.300000000000000e+00
	3.300000000000000e+00
	0.000000000000000e+00
	0.000000000000000e+00
	3.300007938614501e+00

 147	8.920321151612777e-08
	3.300000000000000e+00
	3.300000000000000e+00
	0.000000000000000e+00
	0.000000000000000e+00
	3.299997236017999e+00

 148	9.020321151612776e-08
	3.300000000000000e+00
	3.300000000000000e+00
	0.000000000000000e+00
	0.000000000000000e+00
	3.299997592956899e+00

 149	9.120321151612776e-08
	3.300000000000000e+00
	3.300000000000000e+00
	0.000000000000000e+00
	0.000000000000000e+00
	3.300007224306676e+00

 150	9.220321151612775e-08
	3.300000000000000e+00
	3.300000000000000e+00
	0.000000000000000e+00
	0.000000000000000e+00
	3.299987988285442e+00

 151	9.300000000000001e-08
	3.300000000000000e+00
	3.300000000000000e+00
	0.000000000000000e+00
	0.000000000000000e+00
	3.300017565067003e+00

 152	9.310000000000001e-08
	3.300000000000000e+00
	2.969999999999975e+00
	0.000000000000000e+00
	0.000000000000000e+00
	3.299897600922515e+00

 153	9.330000000000001e-08
	3.300000000000000e+00
	2.310000000000013e+00
	0.000000000000000e+00
	0.000000000000000e+00
	3.301219329454766e+00

 154	9.358011557317841e-08
	3.300000000000000e+00
	1.385618608511290e+00
	0.000000000000000e+00
	0.000000000000000e+00
	3.304015260981458e+00

 155	9.386215077475993e-08
	3.300000000000000e+00
	4.549024432922417e-01
	0.000000000000000e+00
	0.000000000000000e+00
	6.026848441608335e-01

 156	9.400000000000001e-08
	3.300000000000000e+00
	0.000000000000000e+00
	0.000000000000000e+00
	0.000000000000000e+00
	-1.469572117699417e-01

 157	9.402682531265243e-08
	3.300000000000000e+00
	0.000000000000000e+00
	0.000000000000000e+00
	0.000000000000000e+00
	-5.299687759727487e-02

 158	9.408047593795730e-08
	3.300000000000000e+00
	0.000000000000000e+00
	0.000000000000000e+00
	0.000000000000000e+00
	1.536926860113549e-02

 159	9.418777718856703e-08
	3.300000000000000e+00
	0.000000000000000e+00
	0.000000000000000e+00
	0.000000000000000e+00
	-8.104965441197320e-03

 160	9.439710781854845e-08
	3.300000000000000e+00
	0.000000000000000e+00
	0.000000000000000e+00
	0.000000000000000e+00
	6.097813657639159e-03

 161	9.467373634169378e-08
	3.300000000000000e+00
	0.000000000000000e+00
	0.000000000000000e+00
	0.000000000000000e+00
	-4.906452092491229e-03

 162	9.522699338798443e-08
	3.300000000000000e+00
	0.000000000000000e+00
	0.000000000000000e+00
	0.000000000000000e+00
	4.410796977259789e-03

 163	9.622699338798443e-08
	3.300000000000000e+00
	0.000000000000000e+00
	0.000000000000000e+00
	0.000000000000000e+00
	-4.157667130291944e-03

 164	9.722699338798442e-08
	3.300000000000000e+00
	0.000000000000000e+00
	0.000000000000000e+00
	0.000000000000000e+00
	3.920595087511133e-03

 165	9.822699338798442e-08
	3.300000000000000e+00
	0.000000000000000e+00
	0.000000000000000e+00
	0.000000000000000e+00
	-3.696725930736354e-03

 166	9.922699338798441e-08
	3.300000000000000e+00
	0.000000000000000e+00
	0.000000000000000e+00
	0.000000000000000e+00
	3.486752436652776e-03

 167	1.000000000000000e-07
	3.300000000000000e+00
	0.000000000000000e+00
	0.000000000000000e+00
	0.000000000000000e+00
	-3.232296598476000e-03

 168	1.001000000000000e-07
	3.300000000000000e+00
	0.000000000000000e+00
	3.299999999999375e-01
	3.299999999999375e-01
	-2.934506697803013e-04

 169	1.003000000000000e-07
	3.300000000000000e+00
	0.000000000000000e+00
	9.899999999999870e-01
	9.899999999999870e-01
	4.221528033654387e-05

 170	1.005712008234010e-07
	3.300000000000000e+00
	0.000000000000000e+00
	1.884962717223177e+00
	1.884962717223177e+00
	-5.777126931234139e-04

 171	1.007979119905209e-07
	3.300000000000000e+00
	0.000000000000000e+00
	2.633109568719005e+00
	2.633109568719005e+00
	9.863504704575171e-04

 172	1.010000000000000e-07
	3.300000000000000e+00
	0.000000000000000e+00
	3.299999999999986e+00
	3.299999999999986e+00
	-3.422775870763062e-04

 173	1.010230459634512e-07
	3.300000000000000e+00
	0.000000000000000e+00
	3.300000000000000e+00
	3.300000000000000e+00
	-4.338276980673239e-04

 174	1.010691378903537e-07
	3.300000000000000e+00
	0.000000000000000e+00
	3.300000000000000e+00
	3.300000000000000e+00
	-2.128376587764436e-04

 175	1.011613217441586e-07
	3.300000000000000e+00
	0.000000000000000e+00
	3.300000000000000e+00
	3.300000000000000e+00
	8.168163882138479e-05

 176	1.013456894517684e-07
	3.300000000000000e+00
	0.000000000000000e+00
	3.300000000000000e+00
	3.300000000000000e+00
	-6.049538629888940e-05

 177	1.015952703629583e-07
	3.300000000000000e+00
	0.000000000000000e+00
	3.300000000000000e+00
	3.300000000000000e+00
	4.954858198501222e-05

 178	1.020944321853383e-07
	3.300000000000000e+00
	0.000000000000000e+00
	3.300000000000000e+00
	3.300000000000000e+00
	-4.474958137746371e-05

 179	1.030927558300983e-07
	3.300000000000000e+00
	0.000000000000000e+00
	3.300000000000000e+00
	3.300000000000000e+00
	4.296491542082892e-05

 180	1.040927558300983e-07
	3.300000000000000e+00
	0.000000000000000e+00
	3.300000000000000e+00
	3.300000000000000e+00
	-4.082231914569884e-05

 181	1.050927558300983e-07
	3.300000000000000e+00
	0.000000000000000e+00
	3.300000000000000e+00
	3.300000000000000e+00
	3.927362314397678e-05

 182	1.060927558300983e-07
	3.300000000000000e+00
	0.000000000000000e+00
	3.300000000000000e+00
	3.300000000000000e+00
	-3.737429082092264e-05

 183	1.070927558300983e-07
	3.300000000000000e+00
	0.000000000000000e+00
	3.300000000000000e+00
	3.300000000000000e+00
	3.602902007517755e-05

 184	1.080927558300983e-07
	3.300000000000000e+00
	0.000000000000000e+00
	3.300000000000000e+00
	3.300000000000000e+00
	-3.432979136558378e-05

 185	1.090927558300983e-07
	3.300000000000000e+00
	0.000000000000000e+00
	3.300000000000000e+00
	3.300000000000000e+00
	3.315826027191354e-05

 186	1.100927558300983e-07
	3.300000000000000e+00
	0.000000000000000e+00
	3.300000000000000e+00
	3.300000000000000e+00
	-3.162582411190065e-05

 187	1.110927558300983e-07
	3.300000000000000e+00
	0.000000000000000e+00
	3.300000000000000e+00
	3.300000000000000e+00
	3.060183005230629e-05

 188	1.120927558300983e-07
	3.300000000000000e+00
	0.000000000000000e+00
	3.300000000000000e+00
	3.300000000000000e+00
	-2.920950242447928e-05

 189	1.130927558300983e-07
	3.300000000000000e+00
	0.000000000000000e+00
	3.300000000000000e+00
	3.300000000000000e+00
	2.831087253494721e-05

 190	1.140927558300983e-07
	3.300000000000000e+00
	0.000000000000000e+00
	3.300000000000000e+00
	3.300000000000000e+00
	-2.703701568535638e-05

 191	1.150927558300983e-07
	3.300000000000000e+00
	0.000000000000000e+00
	3.300000000000000e+00
	3.300000000000000e+00
	2.624526295245955e-05

 192	1.160927558300982e-07
	3.300000000000000e+00
	0.000000000000000e+00
	3.300000000000000e+00
	3.300000000000000e+00
	-2.507221868178200e-05

 193	1.170927558300982e-07
	3.300000000000000e+00
	0.000000000000000e+00
	3.300000000000000e+00
	3.300000000000000e+00
	2.437201781366541e-05

 194	1.180927558300982e-07
	3.300000000000000e+00
	0.000000000000000e+00
	3.300000000000000e+00
	3.300000000000000e+00
	-2.328533826810933e-05

 195	1.190000000000000e-07
	3.300000000000000e+00
	0.000000000000000e+00
	3.300000000000000e+00
	3.300000000000000e+00
	2.258088902960462e-05

 196	1.191000000000000e-07
	3.300000000000000e+00
	0.000000000000000e+00
	3.300000000000000e+00
	2.970000000000074e+00
	-4.655950467928605e-05

 197	1.193000000000000e-07
	3.300000000000000e+00
	0.000000000000000e+00
	3.300000000000000e+00
	2.310000000000024e+00
	-1.410264995746480e-05

 198	1.195802931032846e-07
	3.300000000000000e+00
	0.000000000000000e+00
	3.300000000000000e+00
	1.385032759160819e+00
	9.485292334879269e-05

 199	1.199058682853419e-07
	3.300000000000000e+00
	0.000000000000000e+00
	3.300000000000000e+00
	3.106346583718702e-01
	-3.296110046104722e-05

 200	1.200000000000000e-07
	3.300000000000000e+00
	0.000000000000000e+00
	3.300000000000000e+00
	2.531308496145357e-14
	-3.922801670265819e-04

 201	1.200301231299069e-07
	3.300000000000000e+00
	0.000000000000000e+00
	3.300000000000000e+00
	0.000000000000000e+00
	3.183443578289036e-05

 202	1.200903693897209e-07
	3.300000000000000e+00
	0.000000000000000e+00
	3.300000000000000e+00
	0.000000000000000e+00
	1.616697634688746e-04

 203	1.202108619093487e-07
	3.300000000000000e+00
	0.000000000000000e+00
	3.300000000000000e+00
	0.000000000000000e+00
	-9.255930459314832e-05

 204	1.204518469486043e-07
	3.300000000000000e+00
	0.000000000000000e+00
	3.300000000000000e+00
	0.000000000000000e+00
	7.336832708174090e-05

 205	1.209338170271155e-07
	3.300000000000000e+00
	0.000000000000000e+00
	3.300000000000000e+00
	0.000000000000000e+00
	-6.488041590282934e-05

 206	1.218977571841380e-07
	3.300000000000000e+00
	0.000000000000000e+00
	3.300000000000000e+00
	0.000000000000000e+00
	6.131060396053975e-05

 207	1.228977571841380e-07
	3.300000000000000e+00
	0.000000000000000e+00
	3.300000000000000e+00
	0.000000000000000e+00
	-5.765074395748179e-05

 208	1.238977571841380e-07